MODEL 1
REMARK VINA RESULT:    -7.220      0.000      0.000
REMARK INTER + INTRA:         -12.046
REMARK INTER:                 -10.596
REMARK INTRA:                  -1.450
REMARK UNBOUND:                -1.450
REMARK SMILES O=S(=O)(O)OC[C@@H]1O[C@H](O[C@H]2[C@@H]3OC[C@H]2O[C@@H](O)[C@H]3O)[C@@H](O)[C@H](O)[C@@H]1O
REMARK SMILES IDX 9 1 21 2 23 3 25 4 7 5 8 6 10 7 11 8 14 9 15 10 13 11 16 12
REMARK SMILES IDX 12 13 17 14 19 15 18 16 20 18 22 20 24 22 6 24 5 25 2 26
REMARK SMILES IDX 1 27 3 28 4 29 26 31
REMARK H PARENT 18 17 20 19 22 21 24 23 4 30 26 32
ROOT
ATOM      1  C   UNL     1      20.227   4.023  27.709  1.00  0.00    +0.282 C 
ATOM      2  C   UNL     1      20.941   3.095  28.711  1.00  0.00    +0.202 C 
ATOM      3  C   UNL     1      22.429   3.398  28.661  1.00  0.00    +0.179 C 
ATOM      4  C   UNL     1      22.670   4.829  29.149  1.00  0.00    +0.177 C 
ATOM      5  C   UNL     1      21.558   5.811  28.709  1.00  0.00    +0.180 C 
ATOM      6  O   UNL     1      20.807   5.320  27.583  1.00  0.00    -0.341 OA
ENDROOT
BRANCH   1   7
ATOM      7  O   UNL     1      18.840   4.058  28.056  1.00  0.00    -0.341 OA
BRANCH   7   8
ATOM      8  C   UNL     1      18.001   4.399  26.958  1.00  0.00    +0.184 C 
ATOM      9  C   UNL     1      15.918   4.514  25.889  1.00  0.00    +0.195 C 
ATOM     10  C   UNL     1      16.521   4.497  27.295  1.00  0.00    +0.179 C 
ATOM     11  O   UNL     1      16.791   3.691  25.074  1.00  0.00    -0.370 OA
ATOM     12  O   UNL     1      16.108   3.363  28.078  1.00  0.00    -0.342 OA
ATOM     13  C   UNL     1      17.890   3.281  25.927  1.00  0.00    +0.184 C 
ATOM     14  C   UNL     1      16.275   2.085  27.474  1.00  0.00    +0.279 C 
ATOM     15  C   UNL     1      17.556   1.953  26.620  1.00  0.00    +0.202 C 
BRANCH  14  16
ATOM     16  O   UNL     1      15.122   1.797  26.687  1.00  0.00    -0.366 OA
ATOM     17  H   UNL     1      15.230   0.865  26.427  1.00  0.00    +0.213 HD
ENDBRANCH  14  16
BRANCH  15  18
ATOM     18  O   UNL     1      17.417   0.907  25.650  1.00  0.00    -0.385 OA
ATOM     19  H   UNL     1      18.088   1.126  24.968  1.00  0.00    +0.211 HD
ENDBRANCH  15  18
ENDBRANCH   7   8
ENDBRANCH   1   7
BRANCH   2  20
ATOM     20  O   UNL     1      20.730   1.710  28.387  1.00  0.00    -0.385 OA
ATOM     21  H   UNL     1      20.970   1.613  27.444  1.00  0.00    +0.211 HD
ENDBRANCH   2  20
BRANCH   3  22
ATOM     22  O   UNL     1      23.155   2.483  29.499  1.00  0.00    -0.387 OA
ATOM     23  H   UNL     1      23.954   2.979  29.777  1.00  0.00    +0.211 HD
ENDBRANCH   3  22
BRANCH   5  24
ATOM     24  C   UNL     1      20.638   6.305  29.841  1.00  0.00    +0.220 C 
BRANCH  24  25
ATOM     25  O   UNL     1      19.932   7.455  29.381  1.00  0.00    -0.245 OA
BRANCH  25  26
ATOM     26  S   UNL     1      18.319   7.478  29.567  1.00  0.00    +0.397 S 
ATOM     27  O   UNL     1      17.675   7.607  28.280  1.00  0.00    -0.169 OA
ATOM     28  O   UNL     1      18.003   8.347  30.678  1.00  0.00    -0.169 OA
BRANCH  26  29
ATOM     29  O   UNL     1      18.025   5.992  30.114  1.00  0.00    -0.264 OA
ATOM     30  H   UNL     1      17.058   5.925  30.249  1.00  0.00    +0.236 HD
ENDBRANCH  26  29
ENDBRANCH  25  26
ENDBRANCH  24  25
ENDBRANCH   5  24
BRANCH   4  31
ATOM     31  O   UNL     1      22.826   4.819  30.573  1.00  0.00    -0.387 OA
ATOM     32  H   UNL     1      23.205   5.701  30.790  1.00  0.00    +0.211 HD
ENDBRANCH   4  31
TORSDOF 11
ENDMDL
MODEL 2
REMARK VINA RESULT:    -7.162      2.313      6.132
REMARK INTER + INTRA:         -11.962
REMARK INTER:                 -10.152
REMARK INTRA:                  -1.809
REMARK UNBOUND:                -1.450
REMARK SMILES O=S(=O)(O)OC[C@@H]1O[C@H](O[C@H]2[C@@H]3OC[C@H]2O[C@@H](O)[C@H]3O)[C@@H](O)[C@H](O)[C@@H]1O
REMARK SMILES IDX 9 1 21 2 23 3 25 4 7 5 8 6 10 7 11 8 14 9 15 10 13 11 16 12
REMARK SMILES IDX 12 13 17 14 19 15 18 16 20 18 22 20 24 22 6 24 5 25 2 26
REMARK SMILES IDX 1 27 3 28 4 29 26 31
REMARK H PARENT 18 17 20 19 22 21 24 23 4 30 26 32
ROOT
ATOM      1  C   UNL     1      18.942   5.797  26.253  1.00  0.00    +0.282 C 
ATOM      2  C   UNL     1      17.506   5.239  26.270  1.00  0.00    +0.202 C 
ATOM      3  C   UNL     1      17.271   4.496  24.966  1.00  0.00    +0.179 C 
ATOM      4  C   UNL     1      18.205   3.285  24.897  1.00  0.00    +0.177 C 
ATOM      5  C   UNL     1      19.599   3.564  25.510  1.00  0.00    +0.180 C 
ATOM      6  O   UNL     1      19.894   4.972  25.583  1.00  0.00    -0.341 OA
ENDROOT
BRANCH   1   7
ATOM      7  O   UNL     1      19.311   6.100  27.601  1.00  0.00    -0.341 OA
BRANCH   7   8
ATOM      8  C   UNL     1      19.624   7.475  27.796  1.00  0.00    +0.184 C 
ATOM      9  C   UNL     1      20.703   9.222  28.927  1.00  0.00    +0.195 C 
ATOM     10  C   UNL     1      20.871   7.732  28.630  1.00  0.00    +0.179 C 
ATOM     11  O   UNL     1      19.273   9.450  29.019  1.00  0.00    -0.370 OA
ATOM     12  O   UNL     1      20.862   6.911  29.811  1.00  0.00    -0.342 OA
ATOM     13  C   UNL     1      18.632   8.185  28.710  1.00  0.00    +0.184 C 
ATOM     14  C   UNL     1      19.767   7.098  30.701  1.00  0.00    +0.279 C 
ATOM     15  C   UNL     1      18.420   7.372  29.995  1.00  0.00    +0.202 C 
BRANCH  14  16
ATOM     16  O   UNL     1      20.082   8.159  31.598  1.00  0.00    -0.366 OA
ATOM     17  H   UNL     1      20.545   7.726  32.337  1.00  0.00    +0.213 HD
ENDBRANCH  14  16
BRANCH  15  18
ATOM     18  O   UNL     1      17.514   8.054  30.872  1.00  0.00    -0.385 OA
ATOM     19  H   UNL     1      18.009   8.123  31.716  1.00  0.00    +0.211 HD
ENDBRANCH  15  18
ENDBRANCH   7   8
ENDBRANCH   1   7
BRANCH   2  20
ATOM     20  O   UNL     1      16.535   6.291  26.397  1.00  0.00    -0.385 OA
ATOM     21  H   UNL     1      15.673   5.849  26.532  1.00  0.00    +0.211 HD
ENDBRANCH   2  20
BRANCH   3  22
ATOM     22  O   UNL     1      15.907   4.047  24.884  1.00  0.00    -0.387 OA
ATOM     23  H   UNL     1      15.644   4.214  23.955  1.00  0.00    +0.211 HD
ENDBRANCH   3  22
BRANCH   5  24
ATOM     24  C   UNL     1      19.880   2.849  26.844  1.00  0.00    +0.220 C 
BRANCH  24  25
ATOM     25  O   UNL     1      21.292   2.781  27.032  1.00  0.00    -0.245 OA
BRANCH  25  26
ATOM     26  S   UNL     1      21.938   3.661  28.234  1.00  0.00    +0.397 S 
ATOM     27  O   UNL     1      22.514   4.876  27.702  1.00  0.00    -0.169 OA
ATOM     28  O   UNL     1      22.680   2.772  29.099  1.00  0.00    -0.169 OA
BRANCH  26  29
ATOM     29  O   UNL     1      20.636   4.070  29.087  1.00  0.00    -0.264 OA
ATOM     30  H   UNL     1      20.187   4.787  28.595  1.00  0.00    +0.236 HD
ENDBRANCH  26  29
ENDBRANCH  25  26
ENDBRANCH  24  25
ENDBRANCH   5  24
BRANCH   4  31
ATOM     31  O   UNL     1      17.571   2.166  25.527  1.00  0.00    -0.387 OA
ATOM     32  H   UNL     1      16.700   2.509  25.829  1.00  0.00    +0.211 HD
ENDBRANCH   4  31
TORSDOF 11
ENDMDL
MODEL 3
REMARK VINA RESULT:    -7.107     44.866     46.671
REMARK INTER + INTRA:         -11.880
REMARK INTER:                 -10.571
REMARK INTRA:                  -1.309
REMARK UNBOUND:                -1.450
REMARK SMILES O=S(=O)(O)OC[C@@H]1O[C@H](O[C@H]2[C@@H]3OC[C@H]2O[C@@H](O)[C@H]3O)[C@@H](O)[C@H](O)[C@@H]1O
REMARK SMILES IDX 9 1 21 2 23 3 25 4 7 5 8 6 10 7 11 8 14 9 15 10 13 11 16 12
REMARK SMILES IDX 12 13 17 14 19 15 18 16 20 18 22 20 24 22 6 24 5 25 2 26
REMARK SMILES IDX 1 27 3 28 4 29 26 31
REMARK H PARENT 18 17 20 19 22 21 24 23 4 30 26 32
ROOT
ATOM      1  C   UNL     1       6.267 -14.785 -12.250  1.00  0.00    +0.282 C 
ATOM      2  C   UNL     1       6.450 -13.273 -12.015  1.00  0.00    +0.202 C 
ATOM      3  C   UNL     1       6.458 -12.581 -13.367  1.00  0.00    +0.179 C 
ATOM      4  C   UNL     1       5.090 -12.753 -14.032  1.00  0.00    +0.177 C 
ATOM      5  C   UNL     1       4.457 -14.138 -13.758  1.00  0.00    +0.180 C 
ATOM      6  O   UNL     1       5.434 -15.118 -13.358  1.00  0.00    -0.341 OA
ENDROOT
BRANCH   1   7
ATOM      7  O   UNL     1       5.827 -15.368 -11.020  1.00  0.00    -0.341 OA
BRANCH   7   8
ATOM      8  C   UNL     1       6.762 -16.296 -10.480  1.00  0.00    +0.184 C 
ATOM      9  C   UNL     1       7.645 -18.453 -10.230  1.00  0.00    +0.195 C 
ATOM     10  C   UNL     1       6.870 -17.608 -11.242  1.00  0.00    +0.179 C 
ATOM     11  O   UNL     1       7.220 -17.993  -8.922  1.00  0.00    -0.370 OA
ATOM     12  O   UNL     1       5.561 -18.128 -11.535  1.00  0.00    -0.342 OA
ATOM     13  C   UNL     1       6.312 -16.884  -9.148  1.00  0.00    +0.184 C 
ATOM     14  C   UNL     1       4.729 -18.408 -10.414  1.00  0.00    +0.279 C 
ATOM     15  C   UNL     1       4.868 -17.395  -9.256  1.00  0.00    +0.202 C 
BRANCH  14  16
ATOM     16  O   UNL     1       5.008 -19.728  -9.956  1.00  0.00    -0.366 OA
ATOM     17  H   UNL     1       4.470 -20.304 -10.528  1.00  0.00    +0.213 HD
ENDBRANCH  14  16
BRANCH  15  18
ATOM     18  O   UNL     1       4.453 -17.980  -8.015  1.00  0.00    -0.385 OA
ATOM     19  H   UNL     1       4.343 -18.932  -8.227  1.00  0.00    +0.211 HD
ENDBRANCH  15  18
ENDBRANCH   7   8
ENDBRANCH   1   7
BRANCH   2  20
ATOM     20  O   UNL     1       7.685 -12.993 -11.334  1.00  0.00    -0.385 OA
ATOM     21  H   UNL     1       7.540 -12.161 -10.841  1.00  0.00    +0.211 HD
ENDBRANCH   2  20
BRANCH   3  22
ATOM     22  O   UNL     1       6.736 -11.179 -13.211  1.00  0.00    -0.387 OA
ATOM     23  H   UNL     1       7.470 -10.998 -13.835  1.00  0.00    +0.211 HD
ENDBRANCH   3  22
BRANCH   5  24
ATOM     24  C   UNL     1       3.240 -14.124 -12.815  1.00  0.00    +0.220 C 
BRANCH  24  25
ATOM     25  O   UNL     1       2.124 -13.591 -13.524  1.00  0.00    -0.245 OA
BRANCH  25  26
ATOM     26  S   UNL     1       1.213 -12.476 -12.773  1.00  0.00    +0.397 S 
ATOM     27  O   UNL     1      -0.050 -13.056 -12.377  1.00  0.00    -0.169 OA
ATOM     28  O   UNL     1       1.292 -11.244 -13.525  1.00  0.00    -0.169 OA
BRANCH  26  29
ATOM     29  O   UNL     1       2.063 -12.196 -11.435  1.00  0.00    -0.264 OA
ATOM     30  H   UNL     1       1.645 -11.434 -10.986  1.00  0.00    +0.236 HD
ENDBRANCH  26  29
ENDBRANCH  25  26
ENDBRANCH  24  25
ENDBRANCH   5  24
BRANCH   4  31
ATOM     31  O   UNL     1       4.227 -11.690 -13.611  1.00  0.00    -0.387 OA
ATOM     32  H   UNL     1       3.362 -11.885 -14.037  1.00  0.00    +0.211 HD
ENDBRANCH   4  31
TORSDOF 11
ENDMDL
MODEL 4
REMARK VINA RESULT:    -6.944      2.180      4.431
REMARK INTER + INTRA:         -11.641
REMARK INTER:                 -10.491
REMARK INTRA:                  -1.150
REMARK UNBOUND:                -1.450
REMARK SMILES O=S(=O)(O)OC[C@@H]1O[C@H](O[C@H]2[C@@H]3OC[C@H]2O[C@@H](O)[C@H]3O)[C@@H](O)[C@H](O)[C@@H]1O
REMARK SMILES IDX 9 1 21 2 23 3 25 4 7 5 8 6 10 7 11 8 14 9 15 10 13 11 16 12
REMARK SMILES IDX 12 13 17 14 19 15 18 16 20 18 22 20 24 22 6 24 5 25 2 26
REMARK SMILES IDX 1 27 3 28 4 29 26 31
REMARK H PARENT 18 17 20 19 22 21 24 23 4 30 26 32
ROOT
ATOM      1  C   UNL     1      17.684   5.762  29.237  1.00  0.00    +0.282 C 
ATOM      2  C   UNL     1      17.627   7.289  29.441  1.00  0.00    +0.202 C 
ATOM      3  C   UNL     1      18.648   7.664  30.502  1.00  0.00    +0.179 C 
ATOM      4  C   UNL     1      20.054   7.349  29.984  1.00  0.00    +0.177 C 
ATOM      5  C   UNL     1      20.107   6.059  29.131  1.00  0.00    +0.180 C 
ATOM      6  O   UNL     1      18.984   5.192  29.377  1.00  0.00    -0.341 OA
ENDROOT
BRANCH   1   7
ATOM      7  O   UNL     1      17.073   5.466  27.978  1.00  0.00    -0.341 OA
BRANCH   7   8
ATOM      8  C   UNL     1      16.669   4.105  27.864  1.00  0.00    +0.184 C 
ATOM      9  C   UNL     1      16.953   1.909  27.096  1.00  0.00    +0.195 C 
ATOM     10  C   UNL     1      17.777   3.144  27.461  1.00  0.00    +0.179 C 
ATOM     11  O   UNL     1      15.705   2.412  26.553  1.00  0.00    -0.370 OA
ATOM     12  O   UNL     1      18.527   3.677  26.354  1.00  0.00    -0.342 OA
ATOM     13  C   UNL     1      15.756   3.857  26.669  1.00  0.00    +0.184 C 
ATOM     14  C   UNL     1      17.793   3.931  25.161  1.00  0.00    +0.279 C 
ATOM     15  C   UNL     1      16.365   4.470  25.400  1.00  0.00    +0.202 C 
BRANCH  14  16
ATOM     16  O   UNL     1      17.750   2.735  24.387  1.00  0.00    -0.366 OA
ATOM     17  H   UNL     1      18.049   3.006  23.501  1.00  0.00    +0.213 HD
ENDBRANCH  14  16
BRANCH  15  18
ATOM     18  O   UNL     1      15.525   4.208  24.268  1.00  0.00    -0.385 OA
ATOM     19  H   UNL     1      15.591   3.237  24.144  1.00  0.00    +0.211 HD
ENDBRANCH  15  18
ENDBRANCH   7   8
ENDBRANCH   1   7
BRANCH   2  20
ATOM     20  O   UNL     1      16.322   7.712  29.871  1.00  0.00    -0.385 OA
ATOM     21  H   UNL     1      15.782   6.900  29.940  1.00  0.00    +0.211 HD
ENDBRANCH   2  20
BRANCH   3  22
ATOM     22  O   UNL     1      18.559   9.065  30.810  1.00  0.00    -0.387 OA
ATOM     23  H   UNL     1      18.243   9.484  29.982  1.00  0.00    +0.211 HD
ENDBRANCH   3  22
BRANCH   5  24
ATOM     24  C   UNL     1      20.340   6.283  27.626  1.00  0.00    +0.220 C 
BRANCH  24  25
ATOM     25  O   UNL     1      21.730   6.116  27.353  1.00  0.00    -0.245 OA
BRANCH  25  26
ATOM     26  S   UNL     1      22.202   4.737  26.639  1.00  0.00    +0.397 S 
ATOM     27  O   UNL     1      22.004   3.623  27.538  1.00  0.00    -0.169 OA
ATOM     28  O   UNL     1      23.463   4.978  25.976  1.00  0.00    -0.169 OA
BRANCH  26  29
ATOM     29  O   UNL     1      21.131   4.597  25.444  1.00  0.00    -0.264 OA
ATOM     30  H   UNL     1      21.192   5.415  24.910  1.00  0.00    +0.236 HD
ENDBRANCH  26  29
ENDBRANCH  25  26
ENDBRANCH  24  25
ENDBRANCH   5  24
BRANCH   4  31
ATOM     31  O   UNL     1      20.550   8.479  29.258  1.00  0.00    -0.387 OA
ATOM     32  H   UNL     1      20.566   8.186  28.319  1.00  0.00    +0.211 HD
ENDBRANCH   4  31
TORSDOF 11
ENDMDL
MODEL 5
REMARK VINA RESULT:    -6.560     43.940     45.716
REMARK INTER + INTRA:         -11.077
REMARK INTER:                  -9.632
REMARK INTRA:                  -1.445
REMARK UNBOUND:                -1.450
REMARK SMILES O=S(=O)(O)OC[C@@H]1O[C@H](O[C@H]2[C@@H]3OC[C@H]2O[C@@H](O)[C@H]3O)[C@@H](O)[C@H](O)[C@@H]1O
REMARK SMILES IDX 9 1 21 2 23 3 25 4 7 5 8 6 10 7 11 8 14 9 15 10 13 11 16 12
REMARK SMILES IDX 12 13 17 14 19 15 18 16 20 18 22 20 24 22 6 24 5 25 2 26
REMARK SMILES IDX 1 27 3 28 4 29 26 31
REMARK H PARENT 18 17 20 19 22 21 24 23 4 30 26 32
ROOT
ATOM      1  C   UNL     1       5.320 -16.532 -10.146  1.00  0.00    +0.282 C 
ATOM      2  C   UNL     1       4.972 -16.051  -8.724  1.00  0.00    +0.202 C 
ATOM      3  C   UNL     1       4.462 -17.243  -7.932  1.00  0.00    +0.179 C 
ATOM      4  C   UNL     1       5.588 -18.269  -7.779  1.00  0.00    +0.177 C 
ATOM      5  C   UNL     1       6.488 -18.368  -9.035  1.00  0.00    +0.180 C 
ATOM      6  O   UNL     1       5.839 -17.859 -10.215  1.00  0.00    -0.341 OA
ENDROOT
BRANCH   1   7
ATOM      7  O   UNL     1       6.185 -15.558 -10.738  1.00  0.00    -0.341 OA
BRANCH   7   8
ATOM      8  C   UNL     1       6.013 -15.446 -12.147  1.00  0.00    +0.184 C 
ATOM      9  C   UNL     1       6.227 -14.306 -14.184  1.00  0.00    +0.195 C 
ATOM     10  C   UNL     1       6.902 -14.408 -12.815  1.00  0.00    +0.179 C 
ATOM     11  O   UNL     1       4.813 -14.529 -13.946  1.00  0.00    -0.370 OA
ATOM     12  O   UNL     1       6.879 -13.175 -12.075  1.00  0.00    -0.342 OA
ATOM     13  C   UNL     1       4.673 -14.829 -12.533  1.00  0.00    +0.184 C 
ATOM     14  C   UNL     1       5.608 -12.549 -11.932  1.00  0.00    +0.279 C 
ATOM     15  C   UNL     1       4.436 -13.538 -11.738  1.00  0.00    +0.202 C 
BRANCH  14  16
ATOM     16  O   UNL     1       5.376 -11.721 -13.068  1.00  0.00    -0.366 OA
ATOM     17  H   UNL     1       6.248 -11.641 -13.494  1.00  0.00    +0.213 HD
ENDBRANCH  14  16
BRANCH  15  18
ATOM     18  O   UNL     1       3.193 -12.937 -12.124  1.00  0.00    -0.385 OA
ATOM     19  H   UNL     1       2.711 -12.826 -11.277  1.00  0.00    +0.211 HD
ENDBRANCH  15  18
ENDBRANCH   7   8
ENDBRANCH   1   7
BRANCH   2  20
ATOM     20  O   UNL     1       3.959 -15.031  -8.747  1.00  0.00    -0.385 OA
ATOM     21  H   UNL     1       3.550 -15.076  -9.634  1.00  0.00    +0.211 HD
ENDBRANCH   2  20
BRANCH   3  22
ATOM     22  O   UNL     1       4.020 -16.828  -6.629  1.00  0.00    -0.387 OA
ATOM     23  H   UNL     1       3.042 -16.896  -6.663  1.00  0.00    +0.211 HD
ENDBRANCH   3  22
BRANCH   5  24
ATOM     24  C   UNL     1       7.907 -17.794  -8.868  1.00  0.00    +0.220 C 
BRANCH  24  25
ATOM     25  O   UNL     1       8.693 -18.200  -9.986  1.00  0.00    -0.245 OA
BRANCH  25  26
ATOM     26  S   UNL     1       9.520 -17.054 -10.784  1.00  0.00    +0.397 S 
ATOM     27  O   UNL     1       9.132 -17.044 -12.176  1.00  0.00    -0.169 OA
ATOM     28  O   UNL     1      10.904 -17.122 -10.372  1.00  0.00    -0.169 OA
BRANCH  26  29
ATOM     29  O   UNL     1       8.958 -15.705 -10.110  1.00  0.00    -0.264 OA
ATOM     30  H   UNL     1       8.063 -15.908  -9.770  1.00  0.00    +0.236 HD
ENDBRANCH  26  29
ENDBRANCH  25  26
ENDBRANCH  24  25
ENDBRANCH   5  24
BRANCH   4  31
ATOM     31  O   UNL     1       6.354 -17.954  -6.611  1.00  0.00    -0.387 OA
ATOM     32  H   UNL     1       7.207 -18.427  -6.734  1.00  0.00    +0.211 HD
ENDBRANCH   4  31
TORSDOF 11
ENDMDL
MODEL 6
REMARK VINA RESULT:    -5.964     43.263     46.507
REMARK INTER + INTRA:         -10.203
REMARK INTER:                  -8.971
REMARK INTRA:                  -1.232
REMARK UNBOUND:                -1.450
REMARK SMILES O=S(=O)(O)OC[C@@H]1O[C@H](O[C@H]2[C@@H]3OC[C@H]2O[C@@H](O)[C@H]3O)[C@@H](O)[C@H](O)[C@@H]1O
REMARK SMILES IDX 9 1 21 2 23 3 25 4 7 5 8 6 10 7 11 8 14 9 15 10 13 11 16 12
REMARK SMILES IDX 12 13 17 14 19 15 18 16 20 18 22 20 24 22 6 24 5 25 2 26
REMARK SMILES IDX 1 27 3 28 4 29 26 31
REMARK H PARENT 18 17 20 19 22 21 24 23 4 30 26 32
ROOT
ATOM      1  C   UNL     1      -9.755  18.898  -5.535  1.00  0.00    +0.282 C 
ATOM      2  C   UNL     1     -10.683  19.098  -4.320  1.00  0.00    +0.202 C 
ATOM      3  C   UNL     1     -12.087  19.365  -4.835  1.00  0.00    +0.179 C 
ATOM      4  C   UNL     1     -12.600  18.125  -5.572  1.00  0.00    +0.177 C 
ATOM      5  C   UNL     1     -11.494  17.400  -6.375  1.00  0.00    +0.180 C 
ATOM      6  O   UNL     1     -10.368  18.254  -6.651  1.00  0.00    -0.341 OA
ENDROOT
BRANCH   1   7
ATOM      7  O   UNL     1      -8.575  18.231  -5.080  1.00  0.00    -0.341 OA
BRANCH   7   8
ATOM      8  C   UNL     1      -7.414  19.054  -5.139  1.00  0.00    +0.184 C 
ATOM      9  C   UNL     1      -5.513  19.894  -6.223  1.00  0.00    +0.195 C 
ATOM     10  C   UNL     1      -6.895  19.321  -6.543  1.00  0.00    +0.179 C 
ATOM     11  O   UNL     1      -5.075  19.218  -5.016  1.00  0.00    -0.370 OA
ATOM     12  O   UNL     1      -6.843  18.098  -7.300  1.00  0.00    -0.342 OA
ATOM     13  C   UNL     1      -6.168  18.360  -4.601  1.00  0.00    +0.184 C 
ATOM     14  C   UNL     1      -6.011  17.068  -6.778  1.00  0.00    +0.279 C 
ATOM     15  C   UNL     1      -6.020  16.970  -5.236  1.00  0.00    +0.202 C 
BRANCH  14  16
ATOM     16  O   UNL     1      -4.683  17.268  -7.255  1.00  0.00    -0.366 OA
ATOM     17  H   UNL     1      -4.767  17.968  -7.926  1.00  0.00    +0.213 HD
ENDBRANCH  14  16
BRANCH  15  18
ATOM     18  O   UNL     1      -4.831  16.329  -4.759  1.00  0.00    -0.385 OA
ATOM     19  H   UNL     1      -4.211  17.072  -4.595  1.00  0.00    +0.211 HD
ENDBRANCH  15  18
ENDBRANCH   7   8
ENDBRANCH   1   7
BRANCH   2  20
ATOM     20  O   UNL     1     -10.257  20.208  -3.512  1.00  0.00    -0.385 OA
ATOM     21  H   UNL     1     -10.101  20.949  -4.130  1.00  0.00    +0.211 HD
ENDBRANCH   2  20
BRANCH   3  22
ATOM     22  O   UNL     1     -12.972  19.667  -3.743  1.00  0.00    -0.387 OA
ATOM     23  H   UNL     1     -13.213  18.794  -3.367  1.00  0.00    +0.211 HD
ENDBRANCH   3  22
BRANCH   5  24
ATOM     24  C   UNL     1     -11.054  16.041  -5.800  1.00  0.00    +0.220 C 
BRANCH  24  25
ATOM     25  O   UNL     1     -11.533  15.010  -6.660  1.00  0.00    -0.245 OA
BRANCH  25  26
ATOM     26  S   UNL     1     -12.931  14.283  -6.266  1.00  0.00    +0.397 S 
ATOM     27  O   UNL     1     -12.834  12.862  -6.510  1.00  0.00    -0.169 OA
ATOM     28  O   UNL     1     -14.019  15.081  -6.783  1.00  0.00    -0.169 OA
BRANCH  26  29
ATOM     29  O   UNL     1     -12.983  14.503  -4.672  1.00  0.00    -0.264 OA
ATOM     30  H   UNL     1     -12.671  13.672  -4.259  1.00  0.00    +0.236 HD
ENDBRANCH  26  29
ENDBRANCH  25  26
ENDBRANCH  24  25
ENDBRANCH   5  24
BRANCH   4  31
ATOM     31  O   UNL     1     -13.226  17.245  -4.631  1.00  0.00    -0.387 OA
ATOM     32  H   UNL     1     -12.841  17.494  -3.760  1.00  0.00    +0.211 HD
ENDBRANCH   4  31
TORSDOF 11
ENDMDL
MODEL 7
REMARK VINA RESULT:    -5.962     43.856     46.446
REMARK INTER + INTRA:         -10.200
REMARK INTER:                  -9.099
REMARK INTRA:                  -1.101
REMARK UNBOUND:                -1.450
REMARK SMILES O=S(=O)(O)OC[C@@H]1O[C@H](O[C@H]2[C@@H]3OC[C@H]2O[C@@H](O)[C@H]3O)[C@@H](O)[C@H](O)[C@@H]1O
REMARK SMILES IDX 9 1 21 2 23 3 25 4 7 5 8 6 10 7 11 8 14 9 15 10 13 11 16 12
REMARK SMILES IDX 12 13 17 14 19 15 18 16 20 18 22 20 24 22 6 24 5 25 2 26
REMARK SMILES IDX 1 27 3 28 4 29 26 31
REMARK H PARENT 18 17 20 19 22 21 24 23 4 30 26 32
ROOT
ATOM      1  C   UNL     1       8.226 -16.562 -10.935  1.00  0.00    +0.282 C 
ATOM      2  C   UNL     1       9.383 -15.972 -10.105  1.00  0.00    +0.202 C 
ATOM      3  C   UNL     1      10.081 -17.113  -9.385  1.00  0.00    +0.179 C 
ATOM      4  C   UNL     1      10.721 -18.046 -10.417  1.00  0.00    +0.177 C 
ATOM      5  C   UNL     1       9.865 -18.207 -11.696  1.00  0.00    +0.180 C 
ATOM      6  O   UNL     1       8.485 -17.854 -11.481  1.00  0.00    -0.341 OA
ENDROOT
BRANCH   1   7
ATOM      7  O   UNL     1       7.860 -15.597 -11.924  1.00  0.00    -0.341 OA
BRANCH   7   8
ATOM      8  C   UNL     1       6.453 -15.513 -12.125  1.00  0.00    +0.184 C 
ATOM      9  C   UNL     1       4.549 -14.623 -13.161  1.00  0.00    +0.195 C 
ATOM     10  C   UNL     1       6.034 -14.864 -13.434  1.00  0.00    +0.179 C 
ATOM     11  O   UNL     1       4.445 -14.357 -11.739  1.00  0.00    -0.370 OA
ATOM     12  O   UNL     1       6.777 -13.651 -13.654  1.00  0.00    -0.342 OA
ATOM     13  C   UNL     1       5.779 -14.515 -11.190  1.00  0.00    +0.184 C 
ATOM     14  C   UNL     1       6.634 -12.637 -12.665  1.00  0.00    +0.279 C 
ATOM     15  C   UNL     1       6.527 -13.175 -11.221  1.00  0.00    +0.202 C 
BRANCH  14  16
ATOM     16  O   UNL     1       5.495 -11.843 -12.985  1.00  0.00    -0.366 OA
ATOM     17  H   UNL     1       5.628 -11.588 -13.916  1.00  0.00    +0.213 HD
ENDBRANCH  14  16
BRANCH  15  18
ATOM     18  O   UNL     1       5.876 -12.222 -10.369  1.00  0.00    -0.385 OA
ATOM     19  H   UNL     1       5.162 -12.740  -9.939  1.00  0.00    +0.211 HD
ENDBRANCH  15  18
ENDBRANCH   7   8
ENDBRANCH   1   7
BRANCH   2  20
ATOM     20  O   UNL     1       8.903 -15.025  -9.135  1.00  0.00    -0.385 OA
ATOM     21  H   UNL     1       9.668 -14.812  -8.564  1.00  0.00    +0.211 HD
ENDBRANCH   2  20
BRANCH   3  22
ATOM     22  O   UNL     1      11.102 -16.604  -8.510  1.00  0.00    -0.387 OA
ATOM     23  H   UNL     1      11.430 -17.390  -8.025  1.00  0.00    +0.211 HD
ENDBRANCH   3  22
BRANCH   5  24
ATOM     24  C   UNL     1      10.440 -17.532 -12.955  1.00  0.00    +0.220 C 
BRANCH  24  25
ATOM     25  O   UNL     1      10.728 -18.542 -13.919  1.00  0.00    -0.245 OA
BRANCH  25  26
ATOM     26  S   UNL     1      12.259 -18.675 -14.442  1.00  0.00    +0.397 S 
ATOM     27  O   UNL     1      12.581 -20.064 -14.679  1.00  0.00    -0.169 OA
ATOM     28  O   UNL     1      13.093 -17.820 -13.628  1.00  0.00    -0.169 OA
BRANCH  26  29
ATOM     29  O   UNL     1      12.189 -17.939 -15.871  1.00  0.00    -0.264 OA
ATOM     30  H   UNL     1      11.296 -18.107 -16.235  1.00  0.00    +0.236 HD
ENDBRANCH  26  29
ENDBRANCH  25  26
ENDBRANCH  24  25
ENDBRANCH   5  24
BRANCH   4  31
ATOM     31  O   UNL     1      12.037 -17.574 -10.724  1.00  0.00    -0.387 OA
ATOM     32  H   UNL     1      12.593 -17.871  -9.969  1.00  0.00    +0.211 HD
ENDBRANCH   4  31
TORSDOF 11
ENDMDL
MODEL 8
REMARK VINA RESULT:    -5.958     44.593     46.683
REMARK INTER + INTRA:         -10.194
REMARK INTER:                  -9.342
REMARK INTRA:                  -0.851
REMARK UNBOUND:                -1.450
REMARK SMILES O=S(=O)(O)OC[C@@H]1O[C@H](O[C@H]2[C@@H]3OC[C@H]2O[C@@H](O)[C@H]3O)[C@@H](O)[C@H](O)[C@@H]1O
REMARK SMILES IDX 9 1 21 2 23 3 25 4 7 5 8 6 10 7 11 8 14 9 15 10 13 11 16 12
REMARK SMILES IDX 12 13 17 14 19 15 18 16 20 18 22 20 24 22 6 24 5 25 2 26
REMARK SMILES IDX 1 27 3 28 4 29 26 31
REMARK H PARENT 18 17 20 19 22 21 24 23 4 30 26 32
ROOT
ATOM      1  C   UNL     1       5.256 -17.159 -11.228  1.00  0.00    +0.282 C 
ATOM      2  C   UNL     1       5.260 -17.159  -9.687  1.00  0.00    +0.202 C 
ATOM      3  C   UNL     1       5.165 -18.599  -9.213  1.00  0.00    +0.179 C 
ATOM      4  C   UNL     1       6.421 -19.359  -9.648  1.00  0.00    +0.177 C 
ATOM      5  C   UNL     1       6.934 -18.926 -11.042  1.00  0.00    +0.180 C 
ATOM      6  O   UNL     1       5.915 -18.275 -11.825  1.00  0.00    -0.341 OA
ENDROOT
BRANCH   1   7
ATOM      7  O   UNL     1       5.774 -15.900 -11.667  1.00  0.00    -0.341 OA
BRANCH   7   8
ATOM      8  C   UNL     1       4.780 -15.061 -12.244  1.00  0.00    +0.184 C 
ATOM      9  C   UNL     1       4.092 -13.305 -13.636  1.00  0.00    +0.195 C 
ATOM     10  C   UNL     1       5.214 -14.336 -13.509  1.00  0.00    +0.179 C 
ATOM     11  O   UNL     1       3.702 -12.974 -12.278  1.00  0.00    -0.370 OA
ATOM     12  O   UNL     1       6.513 -13.746 -13.329  1.00  0.00    -0.342 OA
ATOM     13  C   UNL     1       4.489 -13.823 -11.403  1.00  0.00    +0.184 C 
ATOM     14  C   UNL     1       6.630 -12.786 -12.284  1.00  0.00    +0.279 C 
ATOM     15  C   UNL     1       5.800 -13.121 -11.024  1.00  0.00    +0.202 C 
BRANCH  14  16
ATOM     16  O   UNL     1       6.262 -11.507 -12.794  1.00  0.00    -0.366 OA
ATOM     17  H   UNL     1       5.388 -11.330 -12.403  1.00  0.00    +0.213 HD
ENDBRANCH  14  16
BRANCH  15  18
ATOM     18  O   UNL     1       5.529 -11.937 -10.262  1.00  0.00    -0.385 OA
ATOM     19  H   UNL     1       5.197 -12.279  -9.404  1.00  0.00    +0.211 HD
ENDBRANCH  15  18
ENDBRANCH   7   8
ENDBRANCH   1   7
BRANCH   2  20
ATOM     20  O   UNL     1       4.149 -16.414  -9.160  1.00  0.00    -0.385 OA
ATOM     21  H   UNL     1       3.909 -15.762  -9.848  1.00  0.00    +0.211 HD
ENDBRANCH   2  20
BRANCH   3  22
ATOM     22  O   UNL     1       5.054 -18.649  -7.780  1.00  0.00    -0.387 OA
ATOM     23  H   UNL     1       5.737 -19.294  -7.499  1.00  0.00    +0.211 HD
ENDBRANCH   3  22
BRANCH   5  24
ATOM     24  C   UNL     1       8.248 -18.123 -11.033  1.00  0.00    +0.220 C 
BRANCH  24  25
ATOM     25  O   UNL     1       8.819 -18.174 -12.338  1.00  0.00    -0.245 OA
BRANCH  25  26
ATOM     26  S   UNL     1      10.071 -19.179 -12.579  1.00  0.00    +0.397 S 
ATOM     27  O   UNL     1       9.623 -20.370 -13.265  1.00  0.00    -0.169 OA
ATOM     28  O   UNL     1      10.847 -19.237 -11.361  1.00  0.00    -0.169 OA
BRANCH  26  29
ATOM     29  O   UNL     1      10.982 -18.337 -13.605  1.00  0.00    -0.264 OA
ATOM     30  H   UNL     1      11.524 -18.984 -14.102  1.00  0.00    +0.236 HD
ENDBRANCH  26  29
ENDBRANCH  25  26
ENDBRANCH  24  25
ENDBRANCH   5  24
BRANCH   4  31
ATOM     31  O   UNL     1       7.432 -19.206  -8.647  1.00  0.00    -0.387 OA
ATOM     32  H   UNL     1       7.691 -18.259  -8.694  1.00  0.00    +0.211 HD
ENDBRANCH   4  31
TORSDOF 11
ENDMDL
MODEL 9
REMARK VINA RESULT:    -5.947     33.274     35.610
REMARK INTER + INTRA:         -10.178
REMARK INTER:                  -8.919
REMARK INTRA:                  -1.258
REMARK UNBOUND:                -1.450
REMARK SMILES O=S(=O)(O)OC[C@@H]1O[C@H](O[C@H]2[C@@H]3OC[C@H]2O[C@@H](O)[C@H]3O)[C@@H](O)[C@H](O)[C@@H]1O
REMARK SMILES IDX 9 1 21 2 23 3 25 4 7 5 8 6 10 7 11 8 14 9 15 10 13 11 16 12
REMARK SMILES IDX 12 13 17 14 19 15 18 16 20 18 22 20 24 22 6 24 5 25 2 26
REMARK SMILES IDX 1 27 3 28 4 29 26 31
REMARK H PARENT 18 17 20 19 22 21 24 23 4 30 26 32
ROOT
ATOM      1  C   UNL     1      -2.890  15.651   4.294  1.00  0.00    +0.282 C 
ATOM      2  C   UNL     1      -1.443  16.108   4.029  1.00  0.00    +0.202 C 
ATOM      3  C   UNL     1      -0.748  15.034   3.210  1.00  0.00    +0.179 C 
ATOM      4  C   UNL     1      -1.425  14.924   1.841  1.00  0.00    +0.177 C 
ATOM      5  C   UNL     1      -2.958  15.123   1.909  1.00  0.00    +0.180 C 
ATOM      6  O   UNL     1      -3.481  14.903   3.233  1.00  0.00    -0.341 OA
ENDROOT
BRANCH   1   7
ATOM      7  O   UNL     1      -3.653  16.803   4.663  1.00  0.00    -0.341 OA
BRANCH   7   8
ATOM      8  C   UNL     1      -4.454  16.592   5.821  1.00  0.00    +0.184 C 
ATOM      9  C   UNL     1      -5.968  17.306   7.462  1.00  0.00    +0.195 C 
ATOM     10  C   UNL     1      -5.573  17.603   6.015  1.00  0.00    +0.179 C 
ATOM     11  O   UNL     1      -4.746  16.901   8.131  1.00  0.00    -0.370 OA
ATOM     12  O   UNL     1      -5.079  18.941   5.823  1.00  0.00    -0.342 OA
ATOM     13  C   UNL     1      -3.707  16.880   7.119  1.00  0.00    +0.184 C 
ATOM     14  C   UNL     1      -4.035  19.359   6.696  1.00  0.00    +0.279 C 
ATOM     15  C   UNL     1      -3.017  18.249   7.039  1.00  0.00    +0.202 C 
BRANCH  14  16
ATOM     16  O   UNL     1      -4.617  19.884   7.886  1.00  0.00    -0.366 OA
ATOM     17  H   UNL     1      -4.120  20.703   8.061  1.00  0.00    +0.213 HD
ENDBRANCH  14  16
BRANCH  15  18
ATOM     18  O   UNL     1      -2.343  18.538   8.271  1.00  0.00    -0.385 OA
ATOM     19  H   UNL     1      -2.957  19.143   8.740  1.00  0.00    +0.211 HD
ENDBRANCH  15  18
ENDBRANCH   7   8
ENDBRANCH   1   7
BRANCH   2  20
ATOM     20  O   UNL     1      -0.721  16.306   5.257  1.00  0.00    -0.385 OA
ATOM     21  H   UNL     1      -0.000  16.932   5.049  1.00  0.00    +0.211 HD
ENDBRANCH   2  20
BRANCH   3  22
ATOM     22  O   UNL     1       0.639  15.361   3.027  1.00  0.00    -0.387 OA
ATOM     23  H   UNL     1       0.651  16.331   2.888  1.00  0.00    +0.211 HD
ENDBRANCH   3  22
BRANCH   5  24
ATOM     24  C   UNL     1      -3.473  16.441   1.302  1.00  0.00    +0.220 C 
BRANCH  24  25
ATOM     25  O   UNL     1      -3.906  16.185  -0.033  1.00  0.00    -0.245 OA
BRANCH  25  26
ATOM     26  S   UNL     1      -3.391  17.188  -1.201  1.00  0.00    +0.397 S 
ATOM     27  O   UNL     1      -3.102  18.490  -0.642  1.00  0.00    -0.169 OA
ATOM     28  O   UNL     1      -4.244  17.017  -2.355  1.00  0.00    -0.169 OA
BRANCH  26  29
ATOM     29  O   UNL     1      -1.990  16.516  -1.624  1.00  0.00    -0.264 OA
ATOM     30  H   UNL     1      -1.848  15.754  -1.026  1.00  0.00    +0.236 HD
ENDBRANCH  26  29
ENDBRANCH  25  26
ENDBRANCH  24  25
ENDBRANCH   5  24
BRANCH   4  31
ATOM     31  O   UNL     1      -0.816  15.856   0.941  1.00  0.00    -0.387 OA
ATOM     32  H   UNL     1      -0.225  15.310   0.375  1.00  0.00    +0.211 HD
ENDBRANCH   4  31
TORSDOF 11
ENDMDL
