MODEL 1
REMARK VINA RESULT:    -6.926      0.000      0.000
REMARK INTER + INTRA:         -11.757
REMARK INTER:                 -10.165
REMARK INTRA:                  -1.592
REMARK UNBOUND:                -1.592
REMARK SMILES O=S(=O)(O)OC[C@@H]1O[C@H](O[C@H]2[C@@H]3OC[C@H]2O[C@@H](O)[C@H]3O)[C@@H](O)[C@H](O)[C@@H]1O
REMARK SMILES IDX 9 1 21 2 23 3 25 4 7 5 8 6 10 7 11 8 14 9 15 10 13 11 16 12
REMARK SMILES IDX 12 13 17 14 19 15 18 16 20 18 22 20 24 22 6 24 5 25 2 26
REMARK SMILES IDX 1 27 3 28 4 29 26 31
REMARK H PARENT 18 17 20 19 22 21 24 23 4 30 26 32
ROOT
ATOM      1  C   UNL     1      10.866   6.599  18.646  1.00  0.00    +0.282 C 
ATOM      2  C   UNL     1      10.236   5.655  17.604  1.00  0.00    +0.202 C 
ATOM      3  C   UNL     1      10.004   6.446  16.328  1.00  0.00    +0.179 C 
ATOM      4  C   UNL     1      11.353   6.886  15.753  1.00  0.00    +0.177 C 
ATOM      5  C   UNL     1      12.379   7.266  16.847  1.00  0.00    +0.180 C 
ATOM      6  O   UNL     1      11.750   7.579  18.104  1.00  0.00    -0.341 OA
ENDROOT
BRANCH   1   7
ATOM      7  O   UNL     1      11.476   5.790  19.657  1.00  0.00    -0.341 OA
BRANCH   7   8
ATOM      8  C   UNL     1      10.876   5.956  20.937  1.00  0.00    +0.184 C 
ATOM      9  C   UNL     1      10.949   5.984  23.280  1.00  0.00    +0.195 C 
ATOM     10  C   UNL     1      11.857   6.211  22.071  1.00  0.00    +0.179 C 
ATOM     11  O   UNL     1      10.001   4.962  22.877  1.00  0.00    -0.370 OA
ATOM     12  O   UNL     1      12.956   5.284  22.002  1.00  0.00    -0.342 OA
ATOM     13  C   UNL     1      10.280   4.664  21.484  1.00  0.00    +0.184 C 
ATOM     14  C   UNL     1      12.622   3.903  22.093  1.00  0.00    +0.279 C 
ATOM     15  C   UNL     1      11.303   3.525  21.382  1.00  0.00    +0.202 C 
BRANCH  14  16
ATOM     16  O   UNL     1      12.567   3.535  23.469  1.00  0.00    -0.366 OA
ATOM     17  H   UNL     1      13.498   3.524  23.756  1.00  0.00    +0.213 HD
ENDBRANCH  14  16
BRANCH  15  18
ATOM     18  O   UNL     1      10.758   2.316  21.928  1.00  0.00    -0.385 OA
ATOM     19  H   UNL     1       9.832   2.553  22.149  1.00  0.00    +0.211 HD
ENDBRANCH  15  18
ENDBRANCH   7   8
ENDBRANCH   1   7
BRANCH   2  20
ATOM     20  O   UNL     1       8.981   5.126  18.066  1.00  0.00    -0.385 OA
ATOM     21  H   UNL     1       8.789   4.353  17.499  1.00  0.00    +0.211 HD
ENDBRANCH   2  20
BRANCH   3  22
ATOM     22  O   UNL     1       9.316   5.640  15.356  1.00  0.00    -0.387 OA
ATOM     23  H   UNL     1       9.729   5.874  14.499  1.00  0.00    +0.211 HD
ENDBRANCH   3  22
BRANCH   5  24
ATOM     24  C   UNL     1      13.545   6.274  17.021  1.00  0.00    +0.220 C 
BRANCH  24  25
ATOM     25  O   UNL     1      14.700   7.002  17.431  1.00  0.00    -0.245 OA
BRANCH  25  26
ATOM     26  S   UNL     1      15.057   7.024  19.015  1.00  0.00    +0.397 S 
ATOM     27  O   UNL     1      14.546   8.233  19.619  1.00  0.00    -0.169 OA
ATOM     28  O   UNL     1      16.430   6.604  19.176  1.00  0.00    -0.169 OA
BRANCH  26  29
ATOM     29  O   UNL     1      14.183   5.792  19.571  1.00  0.00    -0.264 OA
ATOM     30  H   UNL     1      14.713   5.360  20.271  1.00  0.00    +0.236 HD
ENDBRANCH  26  29
ENDBRANCH  25  26
ENDBRANCH  24  25
ENDBRANCH   5  24
BRANCH   4  31
ATOM     31  O   UNL     1      11.857   5.854  14.897  1.00  0.00    -0.387 OA
ATOM     32  H   UNL     1      11.058   5.375  14.583  1.00  0.00    +0.211 HD
ENDBRANCH   4  31
TORSDOF 11
ENDMDL
MODEL 2
REMARK VINA RESULT:    -6.538      1.719      5.623
REMARK INTER + INTRA:         -11.188
REMARK INTER:                  -9.353
REMARK INTRA:                  -1.836
REMARK UNBOUND:                -1.592
REMARK SMILES O=S(=O)(O)OC[C@@H]1O[C@H](O[C@H]2[C@@H]3OC[C@H]2O[C@@H](O)[C@H]3O)[C@@H](O)[C@H](O)[C@@H]1O
REMARK SMILES IDX 9 1 21 2 23 3 25 4 7 5 8 6 10 7 11 8 14 9 15 10 13 11 16 12
REMARK SMILES IDX 12 13 17 14 19 15 18 16 20 18 22 20 24 22 6 24 5 25 2 26
REMARK SMILES IDX 1 27 3 28 4 29 26 31
REMARK H PARENT 18 17 20 19 22 21 24 23 4 30 26 32
ROOT
ATOM      1  C   UNL     1      12.370   4.893  19.626  1.00  0.00    +0.282 C 
ATOM      2  C   UNL     1      11.198   4.175  20.324  1.00  0.00    +0.202 C 
ATOM      3  C   UNL     1      11.775   3.136  21.270  1.00  0.00    +0.179 C 
ATOM      4  C   UNL     1      12.569   3.842  22.373  1.00  0.00    +0.177 C 
ATOM      5  C   UNL     1      13.335   5.086  21.862  1.00  0.00    +0.180 C 
ATOM      6  O   UNL     1      13.532   5.062  20.436  1.00  0.00    -0.341 OA
ENDROOT
BRANCH   1   7
ATOM      7  O   UNL     1      11.873   6.123  19.092  1.00  0.00    -0.341 OA
BRANCH   7   8
ATOM      8  C   UNL     1      12.029   6.219  17.680  1.00  0.00    +0.184 C 
ATOM      9  C   UNL     1      12.125   7.430  15.675  1.00  0.00    +0.195 C 
ATOM     10  C   UNL     1      12.385   7.608  17.172  1.00  0.00    +0.179 C 
ATOM     11  O   UNL     1      11.025   6.489  15.573  1.00  0.00    -0.370 OA
ATOM     12  O   UNL     1      11.540   8.599  17.784  1.00  0.00    -0.342 OA
ATOM     13  C   UNL     1      10.712   6.071  16.927  1.00  0.00    +0.184 C 
ATOM     14  C   UNL     1      10.141   8.460  17.558  1.00  0.00    +0.279 C 
ATOM     15  C   UNL     1       9.648   6.996  17.534  1.00  0.00    +0.202 C 
BRANCH  14  16
ATOM     16  O   UNL     1       9.808   9.117  16.338  1.00  0.00    -0.366 OA
ATOM     17  H   UNL     1      10.265   8.601  15.650  1.00  0.00    +0.213 HD
ENDBRANCH  14  16
BRANCH  15  18
ATOM     18  O   UNL     1       8.418   6.885  16.806  1.00  0.00    -0.385 OA
ATOM     19  H   UNL     1       7.880   6.265  17.345  1.00  0.00    +0.211 HD
ENDBRANCH  15  18
ENDBRANCH   7   8
ENDBRANCH   1   7
BRANCH   2  20
ATOM     20  O   UNL     1      10.340   3.522  19.372  1.00  0.00    -0.385 OA
ATOM     21  H   UNL     1       9.690   4.195  19.088  1.00  0.00    +0.211 HD
ENDBRANCH   2  20
BRANCH   3  22
ATOM     22  O   UNL     1      10.722   2.362  21.867  1.00  0.00    -0.387 OA
ATOM     23  H   UNL     1       9.957   2.973  21.914  1.00  0.00    +0.211 HD
ENDBRANCH   3  22
BRANCH   5  24
ATOM     24  C   UNL     1      12.774   6.438  22.340  1.00  0.00    +0.220 C 
BRANCH  24  25
ATOM     25  O   UNL     1      13.802   7.420  22.225  1.00  0.00    -0.245 OA
BRANCH  25  26
ATOM     26  S   UNL     1      13.613   8.586  21.110  1.00  0.00    +0.397 S 
ATOM     27  O   UNL     1      14.413   8.288  19.944  1.00  0.00    -0.169 OA
ATOM     28  O   UNL     1      13.671   9.866  21.778  1.00  0.00    -0.169 OA
BRANCH  26  29
ATOM     29  O   UNL     1      12.067   8.408  20.700  1.00  0.00    -0.264 OA
ATOM     30  H   UNL     1      11.535   8.850  21.393  1.00  0.00    +0.236 HD
ENDBRANCH  26  29
ENDBRANCH  25  26
ENDBRANCH  24  25
ENDBRANCH   5  24
BRANCH   4  31
ATOM     31  O   UNL     1      11.684   4.176  23.448  1.00  0.00    -0.387 OA
ATOM     32  H   UNL     1      12.217   4.750  24.043  1.00  0.00    +0.211 HD
ENDBRANCH   4  31
TORSDOF 11
ENDMDL
MODEL 3
REMARK VINA RESULT:    -6.404      2.158      5.854
REMARK INTER + INTRA:         -10.991
REMARK INTER:                  -9.837
REMARK INTRA:                  -1.154
REMARK UNBOUND:                -1.592
REMARK SMILES O=S(=O)(O)OC[C@@H]1O[C@H](O[C@H]2[C@@H]3OC[C@H]2O[C@@H](O)[C@H]3O)[C@@H](O)[C@H](O)[C@@H]1O
REMARK SMILES IDX 9 1 21 2 23 3 25 4 7 5 8 6 10 7 11 8 14 9 15 10 13 11 16 12
REMARK SMILES IDX 12 13 17 14 19 15 18 16 20 18 22 20 24 22 6 24 5 25 2 26
REMARK SMILES IDX 1 27 3 28 4 29 26 31
REMARK H PARENT 18 17 20 19 22 21 24 23 4 30 26 32
ROOT
ATOM      1  C   UNL     1      12.099   4.935  19.480  1.00  0.00    +0.282 C 
ATOM      2  C   UNL     1      11.206   4.051  20.371  1.00  0.00    +0.202 C 
ATOM      3  C   UNL     1      12.080   2.986  21.010  1.00  0.00    +0.179 C 
ATOM      4  C   UNL     1      13.094   3.655  21.942  1.00  0.00    +0.177 C 
ATOM      5  C   UNL     1      13.614   5.007  21.396  1.00  0.00    +0.180 C 
ATOM      6  O   UNL     1      13.422   5.134  19.974  1.00  0.00    -0.341 OA
ENDROOT
BRANCH   1   7
ATOM      7  O   UNL     1      11.400   6.160  19.238  1.00  0.00    -0.341 OA
BRANCH   7   8
ATOM      8  C   UNL     1      11.998   6.947  18.213  1.00  0.00    +0.184 C 
ATOM      9  C   UNL     1      12.003   8.743  16.706  1.00  0.00    +0.195 C 
ATOM     10  C   UNL     1      11.409   8.341  18.057  1.00  0.00    +0.179 C 
ATOM     11  O   UNL     1      12.103   7.516  15.937  1.00  0.00    -0.370 OA
ATOM     12  O   UNL     1       9.971   8.281  18.051  1.00  0.00    -0.342 OA
ATOM     13  C   UNL     1      11.672   6.442  16.812  1.00  0.00    +0.184 C 
ATOM     14  C   UNL     1       9.377   7.501  17.020  1.00  0.00    +0.279 C 
ATOM     15  C   UNL     1      10.161   6.217  16.668  1.00  0.00    +0.202 C 
BRANCH  14  16
ATOM     16  O   UNL     1       9.218   8.318  15.862  1.00  0.00    -0.366 OA
ATOM     17  H   UNL     1       8.904   9.172  16.208  1.00  0.00    +0.213 HD
ENDBRANCH  14  16
BRANCH  15  18
ATOM     18  O   UNL     1       9.847   5.775  15.341  1.00  0.00    -0.385 OA
ATOM     19  H   UNL     1       9.136   5.112  15.474  1.00  0.00    +0.211 HD
ENDBRANCH  15  18
ENDBRANCH   7   8
ENDBRANCH   1   7
BRANCH   2  20
ATOM     20  O   UNL     1      10.167   3.414  19.607  1.00  0.00    -0.385 OA
ATOM     21  H   UNL     1      10.588   3.111  18.779  1.00  0.00    +0.211 HD
ENDBRANCH   2  20
BRANCH   3  22
ATOM     22  O   UNL     1      11.277   2.065  21.767  1.00  0.00    -0.387 OA
ATOM     23  H   UNL     1      11.760   1.213  21.720  1.00  0.00    +0.211 HD
ENDBRANCH   3  22
BRANCH   5  24
ATOM     24  C   UNL     1      13.117   6.251  22.154  1.00  0.00    +0.220 C 
BRANCH  24  25
ATOM     25  O   UNL     1      14.233   6.866  22.794  1.00  0.00    -0.245 OA
BRANCH  25  26
ATOM     26  S   UNL     1      14.359   6.715  24.406  1.00  0.00    +0.397 S 
ATOM     27  O   UNL     1      14.483   8.020  25.016  1.00  0.00    -0.169 OA
ATOM     28  O   UNL     1      15.283   5.641  24.691  1.00  0.00    -0.169 OA
BRANCH  26  29
ATOM     29  O   UNL     1      12.913   6.127  24.800  1.00  0.00    -0.264 OA
ATOM     30  H   UNL     1      12.995   5.745  25.697  1.00  0.00    +0.236 HD
ENDBRANCH  26  29
ENDBRANCH  25  26
ENDBRANCH  24  25
ENDBRANCH   5  24
BRANCH   4  31
ATOM     31  O   UNL     1      12.510   3.805  23.240  1.00  0.00    -0.387 OA
ATOM     32  H   UNL     1      12.047   2.953  23.407  1.00  0.00    +0.211 HD
ENDBRANCH   4  31
TORSDOF 11
ENDMDL
MODEL 4
REMARK VINA RESULT:    -6.381     32.628     35.846
REMARK INTER + INTRA:         -10.957
REMARK INTER:                 -10.133
REMARK INTRA:                  -0.824
REMARK UNBOUND:                -1.592
REMARK SMILES O=S(=O)(O)OC[C@@H]1O[C@H](O[C@H]2[C@@H]3OC[C@H]2O[C@@H](O)[C@H]3O)[C@@H](O)[C@H](O)[C@@H]1O
REMARK SMILES IDX 9 1 21 2 23 3 25 4 7 5 8 6 10 7 11 8 14 9 15 10 13 11 16 12
REMARK SMILES IDX 12 13 17 14 19 15 18 16 20 18 22 20 24 22 6 24 5 25 2 26
REMARK SMILES IDX 1 27 3 28 4 29 26 31
REMARK H PARENT 18 17 20 19 22 21 24 23 4 30 26 32
ROOT
ATOM      1  C   UNL     1     -10.388 -12.244  -4.433  1.00  0.00    +0.282 C 
ATOM      2  C   UNL     1      -9.512 -13.476  -4.732  1.00  0.00    +0.202 C 
ATOM      3  C   UNL     1      -9.813 -13.940  -6.147  1.00  0.00    +0.179 C 
ATOM      4  C   UNL     1      -9.385 -12.854  -7.138  1.00  0.00    +0.177 C 
ATOM      5  C   UNL     1      -9.640 -11.422  -6.610  1.00  0.00    +0.180 C 
ATOM      6  O   UNL     1     -10.621 -11.394  -5.555  1.00  0.00    -0.341 OA
ENDROOT
BRANCH   1   7
ATOM      7  O   UNL     1      -9.813 -11.559  -3.317  1.00  0.00    -0.341 OA
BRANCH   7   8
ATOM      8  C   UNL     1      -8.506 -12.021  -2.995  1.00  0.00    +0.184 C 
ATOM      9  C   UNL     1      -6.792 -12.520  -1.476  1.00  0.00    +0.195 C 
ATOM     10  C   UNL     1      -8.317 -12.435  -1.544  1.00  0.00    +0.179 C 
ATOM     11  O   UNL     1      -6.298 -11.502  -2.385  1.00  0.00    -0.370 OA
ATOM     12  O   UNL     1      -8.873 -11.443  -0.662  1.00  0.00    -0.342 OA
ATOM     13  C   UNL     1      -7.463 -10.910  -3.015  1.00  0.00    +0.184 C 
ATOM     14  C   UNL     1      -8.320 -10.135  -0.757  1.00  0.00    +0.279 C 
ATOM     15  C   UNL     1      -7.954  -9.708  -2.196  1.00  0.00    +0.202 C 
BRANCH  14  16
ATOM     16  O   UNL     1      -7.176 -10.059   0.089  1.00  0.00    -0.366 OA
ATOM     17  H   UNL     1      -6.428 -10.289  -0.490  1.00  0.00    +0.213 HD
ENDBRANCH  14  16
BRANCH  15  18
ATOM     18  O   UNL     1      -6.961  -8.674  -2.185  1.00  0.00    -0.385 OA
ATOM     19  H   UNL     1      -7.240  -8.069  -2.905  1.00  0.00    +0.211 HD
ENDBRANCH  15  18
ENDBRANCH   7   8
ENDBRANCH   1   7
BRANCH   2  20
ATOM     20  O   UNL     1      -9.785 -14.550  -3.815  1.00  0.00    -0.385 OA
ATOM     21  H   UNL     1     -10.674 -14.884  -4.047  1.00  0.00    +0.211 HD
ENDBRANCH   2  20
BRANCH   3  22
ATOM     22  O   UNL     1      -9.101 -15.155  -6.439  1.00  0.00    -0.387 OA
ATOM     23  H   UNL     1      -9.512 -15.831  -5.861  1.00  0.00    +0.211 HD
ENDBRANCH   3  22
BRANCH   5  24
ATOM     24  C   UNL     1      -8.375 -10.628  -6.238  1.00  0.00    +0.220 C 
BRANCH  24  25
ATOM     25  O   UNL     1      -7.726 -10.222  -7.440  1.00  0.00    -0.245 OA
BRANCH  25  26
ATOM     26  S   UNL     1      -6.110 -10.073  -7.416  1.00  0.00    +0.397 S 
ATOM     27  O   UNL     1      -5.698  -9.353  -6.231  1.00  0.00    -0.169 OA
ATOM     28  O   UNL     1      -5.668  -9.694  -8.739  1.00  0.00    -0.169 OA
BRANCH  26  29
ATOM     29  O   UNL     1      -5.636 -11.602  -7.247  1.00  0.00    -0.264 OA
ATOM     30  H   UNL     1      -5.534 -11.969  -8.149  1.00  0.00    +0.236 HD
ENDBRANCH  26  29
ENDBRANCH  25  26
ENDBRANCH  24  25
ENDBRANCH   5  24
BRANCH   4  31
ATOM     31  O   UNL     1      -8.008 -13.048  -7.480  1.00  0.00    -0.387 OA
ATOM     32  H   UNL     1      -7.525 -12.350  -6.983  1.00  0.00    +0.211 HD
ENDBRANCH   4  31
TORSDOF 11
ENDMDL
MODEL 5
REMARK VINA RESULT:    -6.315     41.542     45.011
REMARK INTER + INTRA:         -10.860
REMARK INTER:                  -9.615
REMARK INTRA:                  -1.245
REMARK UNBOUND:                -1.592
REMARK SMILES O=S(=O)(O)OC[C@@H]1O[C@H](O[C@H]2[C@@H]3OC[C@H]2O[C@@H](O)[C@H]3O)[C@@H](O)[C@H](O)[C@@H]1O
REMARK SMILES IDX 9 1 21 2 23 3 25 4 7 5 8 6 10 7 11 8 14 9 15 10 13 11 16 12
REMARK SMILES IDX 12 13 17 14 19 15 18 16 20 18 22 20 24 22 6 24 5 25 2 26
REMARK SMILES IDX 1 27 3 28 4 29 26 31
REMARK H PARENT 18 17 20 19 22 21 24 23 4 30 26 32
ROOT
ATOM      1  C   UNL     1      -9.169   8.431 -20.612  1.00  0.00    +0.282 C 
ATOM      2  C   UNL     1      -7.947   8.915 -21.417  1.00  0.00    +0.202 C 
ATOM      3  C   UNL     1      -7.493  10.243 -20.835  1.00  0.00    +0.179 C 
ATOM      4  C   UNL     1      -7.007  10.027 -19.399  1.00  0.00    +0.177 C 
ATOM      5  C   UNL     1      -7.841   8.972 -18.633  1.00  0.00    +0.180 C 
ATOM      6  O   UNL     1      -9.138   8.763 -19.225  1.00  0.00    -0.341 OA
ENDROOT
BRANCH   1   7
ATOM      7  O   UNL     1      -9.323   7.029 -20.851  1.00  0.00    -0.341 OA
BRANCH   7   8
ATOM      8  C   UNL     1     -10.554   6.706 -21.488  1.00  0.00    +0.184 C 
ATOM      9  C   UNL     1     -12.645   5.649 -21.559  1.00  0.00    +0.195 C 
ATOM     10  C   UNL     1     -11.648   6.221 -20.550  1.00  0.00    +0.179 C 
ATOM     11  O   UNL     1     -11.847   5.127 -22.652  1.00  0.00    -0.370 OA
ATOM     12  O   UNL     1     -11.129   5.235 -19.640  1.00  0.00    -0.342 OA
ATOM     13  C   UNL     1     -10.465   5.449 -22.346  1.00  0.00    +0.184 C 
ATOM     14  C   UNL     1     -10.586   4.058 -20.228  1.00  0.00    +0.279 C 
ATOM     15  C   UNL     1      -9.821   4.307 -21.547  1.00  0.00    +0.202 C 
BRANCH  14  16
ATOM     16  O   UNL     1     -11.641   3.122 -20.436  1.00  0.00    -0.366 OA
ATOM     17  H   UNL     1     -12.293   3.605 -20.975  1.00  0.00    +0.213 HD
ENDBRANCH  14  16
BRANCH  15  18
ATOM     18  O   UNL     1      -9.768   3.114 -22.339  1.00  0.00    -0.385 OA
ATOM     19  H   UNL     1      -9.189   3.356 -23.094  1.00  0.00    +0.211 HD
ENDBRANCH  15  18
ENDBRANCH   7   8
ENDBRANCH   1   7
BRANCH   2  20
ATOM     20  O   UNL     1      -8.271   9.094 -22.806  1.00  0.00    -0.385 OA
ATOM     21  H   UNL     1      -7.568   9.664 -23.176  1.00  0.00    +0.211 HD
ENDBRANCH   2  20
BRANCH   3  22
ATOM     22  O   UNL     1      -6.421  10.794 -21.619  1.00  0.00    -0.387 OA
ATOM     23  H   UNL     1      -5.826  11.219 -20.966  1.00  0.00    +0.211 HD
ENDBRANCH   3  22
BRANCH   5  24
ATOM     24  C   UNL     1      -7.116   7.642 -18.357  1.00  0.00    +0.220 C 
BRANCH  24  25
ATOM     25  O   UNL     1      -7.862   6.913 -17.385  1.00  0.00    -0.245 OA
BRANCH  25  26
ATOM     26  S   UNL     1      -7.800   5.292 -17.442  1.00  0.00    +0.397 S 
ATOM     27  O   UNL     1      -7.089   4.784 -16.291  1.00  0.00    -0.169 OA
ATOM     28  O   UNL     1      -7.463   4.898 -18.791  1.00  0.00    -0.169 OA
BRANCH  26  29
ATOM     29  O   UNL     1      -9.351   4.893 -17.274  1.00  0.00    -0.264 OA
ATOM     30  H   UNL     1      -9.374   4.009 -16.854  1.00  0.00    +0.236 HD
ENDBRANCH  26  29
ENDBRANCH  25  26
ENDBRANCH  24  25
ENDBRANCH   5  24
BRANCH   4  31
ATOM     31  O   UNL     1      -5.618   9.681 -19.421  1.00  0.00    -0.387 OA
ATOM     32  H   UNL     1      -5.404   9.443 -18.491  1.00  0.00    +0.211 HD
ENDBRANCH   4  31
TORSDOF 11
ENDMDL
MODEL 6
REMARK VINA RESULT:    -6.100     42.543     45.926
REMARK INTER + INTRA:         -10.544
REMARK INTER:                  -9.540
REMARK INTRA:                  -1.004
REMARK UNBOUND:                -1.592
REMARK SMILES O=S(=O)(O)OC[C@@H]1O[C@H](O[C@H]2[C@@H]3OC[C@H]2O[C@@H](O)[C@H]3O)[C@@H](O)[C@H](O)[C@@H]1O
REMARK SMILES IDX 9 1 21 2 23 3 25 4 7 5 8 6 10 7 11 8 14 9 15 10 13 11 16 12
REMARK SMILES IDX 12 13 17 14 19 15 18 16 20 18 22 20 24 22 6 24 5 25 2 26
REMARK SMILES IDX 1 27 3 28 4 29 26 31
REMARK H PARENT 18 17 20 19 22 21 24 23 4 30 26 32
ROOT
ATOM      1  C   UNL     1     -15.755  -9.407 -15.837  1.00  0.00    +0.282 C 
ATOM      2  C   UNL     1     -15.333 -10.382 -16.953  1.00  0.00    +0.202 C 
ATOM      3  C   UNL     1     -16.204 -10.115 -18.170  1.00  0.00    +0.179 C 
ATOM      4  C   UNL     1     -15.919  -8.705 -18.696  1.00  0.00    +0.177 C 
ATOM      5  C   UNL     1     -15.652  -7.683 -17.566  1.00  0.00    +0.180 C 
ATOM      6  O   UNL     1     -16.170  -8.121 -16.295  1.00  0.00    -0.341 OA
ENDROOT
BRANCH   1   7
ATOM      7  O   UNL     1     -14.691  -9.347 -14.883  1.00  0.00    -0.341 OA
BRANCH   7   8
ATOM      8  C   UNL     1     -15.144  -9.451 -13.538  1.00  0.00    +0.184 C 
ATOM      9  C   UNL     1     -15.656  -8.541 -11.439  1.00  0.00    +0.195 C 
ATOM     10  C   UNL     1     -15.589  -8.138 -12.913  1.00  0.00    +0.179 C 
ATOM     11  O   UNL     1     -14.612  -9.531 -11.251  1.00  0.00    -0.370 OA
ATOM     12  O   UNL     1     -14.624  -7.103 -13.177  1.00  0.00    -0.342 OA
ATOM     13  C   UNL     1     -14.020  -9.760 -12.556  1.00  0.00    +0.184 C 
ATOM     14  C   UNL     1     -13.307  -7.330 -12.686  1.00  0.00    +0.279 C 
ATOM     15  C   UNL     1     -12.843  -8.800 -12.779  1.00  0.00    +0.202 C 
BRANCH  14  16
ATOM     16  O   UNL     1     -13.237  -6.871 -11.338  1.00  0.00    -0.366 OA
ATOM     17  H   UNL     1     -12.885  -7.631 -10.840  1.00  0.00    +0.213 HD
ENDBRANCH  14  16
BRANCH  15  18
ATOM     18  O   UNL     1     -11.798  -9.066 -11.834  1.00  0.00    -0.385 OA
ATOM     19  H   UNL     1     -11.027  -8.575 -12.190  1.00  0.00    +0.211 HD
ENDBRANCH  15  18
ENDBRANCH   7   8
ENDBRANCH   1   7
BRANCH   2  20
ATOM     20  O   UNL     1     -15.499 -11.750 -16.545  1.00  0.00    -0.385 OA
ATOM     21  H   UNL     1     -16.436 -11.843 -16.282  1.00  0.00    +0.211 HD
ENDBRANCH   2  20
BRANCH   3  22
ATOM     22  O   UNL     1     -15.925 -11.072 -19.205  1.00  0.00    -0.387 OA
ATOM     23  H   UNL     1     -16.804 -11.312 -19.567  1.00  0.00    +0.211 HD
ENDBRANCH   3  22
BRANCH   5  24
ATOM     24  C   UNL     1     -14.194  -7.200 -17.454  1.00  0.00    +0.220 C 
BRANCH  24  25
ATOM     25  O   UNL     1     -14.099  -6.296 -16.355  1.00  0.00    -0.245 OA
BRANCH  25  26
ATOM     26  S   UNL     1     -13.620  -4.776 -16.664  1.00  0.00    +0.397 S 
ATOM     27  O   UNL     1     -14.083  -3.891 -15.620  1.00  0.00    -0.169 OA
ATOM     28  O   UNL     1     -13.852  -4.503 -18.064  1.00  0.00    -0.169 OA
BRANCH  26  29
ATOM     29  O   UNL     1     -12.021  -4.897 -16.530  1.00  0.00    -0.264 OA
ATOM     30  H   UNL     1     -11.841  -5.643 -15.923  1.00  0.00    +0.236 HD
ENDBRANCH  26  29
ENDBRANCH  25  26
ENDBRANCH  24  25
ENDBRANCH   5  24
BRANCH   4  31
ATOM     31  O   UNL     1     -14.827  -8.761 -19.620  1.00  0.00    -0.387 OA
ATOM     32  H   UNL     1     -15.161  -8.314 -20.430  1.00  0.00    +0.211 HD
ENDBRANCH   4  31
TORSDOF 11
ENDMDL
MODEL 7
REMARK VINA RESULT:    -5.627     42.374     46.278
REMARK INTER + INTRA:          -9.850
REMARK INTER:                  -8.582
REMARK INTRA:                  -1.268
REMARK UNBOUND:                -1.592
REMARK SMILES O=S(=O)(O)OC[C@@H]1O[C@H](O[C@H]2[C@@H]3OC[C@H]2O[C@@H](O)[C@H]3O)[C@@H](O)[C@H](O)[C@@H]1O
REMARK SMILES IDX 9 1 21 2 23 3 25 4 7 5 8 6 10 7 11 8 14 9 15 10 13 11 16 12
REMARK SMILES IDX 12 13 17 14 19 15 18 16 20 18 22 20 24 22 6 24 5 25 2 26
REMARK SMILES IDX 1 27 3 28 4 29 26 31
REMARK H PARENT 18 17 20 19 22 21 24 23 4 30 26 32
ROOT
ATOM      1  C   UNL     1     -10.145   4.885 -19.933  1.00  0.00    +0.282 C 
ATOM      2  C   UNL     1      -9.807   5.392 -18.518  1.00  0.00    +0.202 C 
ATOM      3  C   UNL     1      -8.309   5.253 -18.309  1.00  0.00    +0.179 C 
ATOM      4  C   UNL     1      -7.575   6.175 -19.286  1.00  0.00    +0.177 C 
ATOM      5  C   UNL     1      -8.265   6.261 -20.669  1.00  0.00    +0.180 C 
ATOM      6  O   UNL     1      -9.142   5.146 -20.914  1.00  0.00    -0.341 OA
ENDROOT
BRANCH   1   7
ATOM      7  O   UNL     1     -11.429   5.405 -20.290  1.00  0.00    -0.341 OA
BRANCH   7   8
ATOM      8  C   UNL     1     -12.360   4.389 -20.647  1.00  0.00    +0.184 C 
ATOM      9  C   UNL     1     -13.389   2.961 -22.196  1.00  0.00    +0.195 C 
ATOM     10  C   UNL     1     -12.063   3.687 -21.964  1.00  0.00    +0.179 C 
ATOM     11  O   UNL     1     -14.414   3.819 -21.633  1.00  0.00    -0.370 OA
ATOM     12  O   UNL     1     -11.754   4.650 -22.987  1.00  0.00    -0.342 OA
ATOM     13  C   UNL     1     -13.726   4.946 -21.030  1.00  0.00    +0.184 C 
ATOM     14  C   UNL     1     -12.771   5.601 -23.286  1.00  0.00    +0.279 C 
ATOM     15  C   UNL     1     -13.569   6.079 -22.052  1.00  0.00    +0.202 C 
BRANCH  14  16
ATOM     16  O   UNL     1     -13.649   5.041 -24.259  1.00  0.00    -0.366 OA
ATOM     17  H   UNL     1     -13.713   4.100 -24.017  1.00  0.00    +0.213 HD
ENDBRANCH  14  16
BRANCH  15  18
ATOM     18  O   UNL     1     -14.854   6.582 -22.440  1.00  0.00    -0.385 OA
ATOM     19  H   UNL     1     -15.061   6.092 -23.265  1.00  0.00    +0.211 HD
ENDBRANCH  15  18
ENDBRANCH   7   8
ENDBRANCH   1   7
BRANCH   2  20
ATOM     20  O   UNL     1     -10.497   4.633 -17.510  1.00  0.00    -0.385 OA
ATOM     21  H   UNL     1     -10.462   5.172 -16.695  1.00  0.00    +0.211 HD
ENDBRANCH   2  20
BRANCH   3  22
ATOM     22  O   UNL     1      -7.955   5.611 -16.963  1.00  0.00    -0.387 OA
ATOM     23  H   UNL     1      -7.382   4.879 -16.652  1.00  0.00    +0.211 HD
ENDBRANCH   3  22
BRANCH   5  24
ATOM     24  C   UNL     1      -8.949   7.606 -20.974  1.00  0.00    +0.220 C 
BRANCH  24  25
ATOM     25  O   UNL     1      -8.186   8.287 -21.967  1.00  0.00    -0.245 OA
BRANCH  25  26
ATOM     26  S   UNL     1      -7.191   9.473 -21.477  1.00  0.00    +0.397 S 
ATOM     27  O   UNL     1      -7.695  10.069 -20.261  1.00  0.00    -0.169 OA
ATOM     28  O   UNL     1      -6.827  10.265 -22.630  1.00  0.00    -0.169 OA
BRANCH  26  29
ATOM     29  O   UNL     1      -5.856   8.655 -21.104  1.00  0.00    -0.264 OA
ATOM     30  H   UNL     1      -5.289   8.654 -21.902  1.00  0.00    +0.236 HD
ENDBRANCH  26  29
ENDBRANCH  25  26
ENDBRANCH  24  25
ENDBRANCH   5  24
BRANCH   4  31
ATOM     31  O   UNL     1      -7.431   7.470 -18.692  1.00  0.00    -0.387 OA
ATOM     32  H   UNL     1      -6.461   7.595 -18.593  1.00  0.00    +0.211 HD
ENDBRANCH   4  31
TORSDOF 11
ENDMDL
MODEL 8
REMARK VINA RESULT:    -5.573     42.649     46.175
REMARK INTER + INTRA:          -9.772
REMARK INTER:                  -8.729
REMARK INTRA:                  -1.042
REMARK UNBOUND:                -1.592
REMARK SMILES O=S(=O)(O)OC[C@@H]1O[C@H](O[C@H]2[C@@H]3OC[C@H]2O[C@@H](O)[C@H]3O)[C@@H](O)[C@H](O)[C@@H]1O
REMARK SMILES IDX 9 1 21 2 23 3 25 4 7 5 8 6 10 7 11 8 14 9 15 10 13 11 16 12
REMARK SMILES IDX 12 13 17 14 19 15 18 16 20 18 22 20 24 22 6 24 5 25 2 26
REMARK SMILES IDX 1 27 3 28 4 29 26 31
REMARK H PARENT 18 17 20 19 22 21 24 23 4 30 26 32
ROOT
ATOM      1  C   UNL     1      -9.568   5.305 -20.765  1.00  0.00    +0.282 C 
ATOM      2  C   UNL     1      -9.832   5.123 -19.258  1.00  0.00    +0.202 C 
ATOM      3  C   UNL     1      -8.497   5.161 -18.534  1.00  0.00    +0.179 C 
ATOM      4  C   UNL     1      -7.871   6.549 -18.700  1.00  0.00    +0.177 C 
ATOM      5  C   UNL     1      -8.132   7.165 -20.095  1.00  0.00    +0.180 C 
ATOM      6  O   UNL     1      -8.478   6.170 -21.078  1.00  0.00    -0.341 OA
ENDROOT
BRANCH   1   7
ATOM      7  O   UNL     1     -10.796   5.703 -21.380  1.00  0.00    -0.341 OA
BRANCH   7   8
ATOM      8  C   UNL     1     -11.161   4.874 -22.479  1.00  0.00    +0.184 C 
ATOM      9  C   UNL     1     -12.540   4.304 -24.287  1.00  0.00    +0.195 C 
ATOM     10  C   UNL     1     -12.090   5.529 -23.489  1.00  0.00    +0.179 C 
ATOM     11  O   UNL     1     -12.571   3.205 -23.340  1.00  0.00    -0.370 OA
ATOM     12  O   UNL     1     -13.171   6.199 -22.816  1.00  0.00    -0.342 OA
ATOM     13  C   UNL     1     -12.087   3.732 -22.078  1.00  0.00    +0.184 C 
ATOM     14  C   UNL     1     -14.009   5.384 -22.003  1.00  0.00    +0.279 C 
ATOM     15  C   UNL     1     -13.258   4.268 -21.244  1.00  0.00    +0.202 C 
BRANCH  14  16
ATOM     16  O   UNL     1     -15.035   4.826 -22.819  1.00  0.00    -0.366 OA
ATOM     17  H   UNL     1     -14.733   4.981 -23.731  1.00  0.00    +0.213 HD
ENDBRANCH  14  16
BRANCH  15  18
ATOM     18  O   UNL     1     -14.149   3.201 -20.894  1.00  0.00    -0.385 OA
ATOM     19  H   UNL     1     -14.872   3.647 -20.403  1.00  0.00    +0.211 HD
ENDBRANCH  15  18
ENDBRANCH   7   8
ENDBRANCH   1   7
BRANCH   2  20
ATOM     20  O   UNL     1     -10.481   3.869 -18.986  1.00  0.00    -0.385 OA
ATOM     21  H   UNL     1     -11.430   4.009 -19.177  1.00  0.00    +0.211 HD
ENDBRANCH   2  20
BRANCH   3  22
ATOM     22  O   UNL     1      -8.677   4.887 -17.135  1.00  0.00    -0.387 OA
ATOM     23  H   UNL     1      -9.238   5.621 -16.806  1.00  0.00    +0.211 HD
ENDBRANCH   3  22
BRANCH   5  24
ATOM     24  C   UNL     1      -9.112   8.352 -20.111  1.00  0.00    +0.220 C 
BRANCH  24  25
ATOM     25  O   UNL     1      -8.516   9.441 -19.410  1.00  0.00    -0.245 OA
BRANCH  25  26
ATOM     26  S   UNL     1      -7.232  10.166 -20.089  1.00  0.00    +0.397 S 
ATOM     27  O   UNL     1      -7.306  10.055 -21.528  1.00  0.00    -0.169 OA
ATOM     28  O   UNL     1      -6.051   9.787 -19.347  1.00  0.00    -0.169 OA
BRANCH  26  29
ATOM     29  O   UNL     1      -7.479  11.710 -19.705  1.00  0.00    -0.264 OA
ATOM     30  H   UNL     1      -8.076  11.718 -18.929  1.00  0.00    +0.236 HD
ENDBRANCH  26  29
ENDBRANCH  25  26
ENDBRANCH  24  25
ENDBRANCH   5  24
BRANCH   4  31
ATOM     31  O   UNL     1      -8.344   7.404 -17.653  1.00  0.00    -0.387 OA
ATOM     32  H   UNL     1      -7.653   8.098 -17.565  1.00  0.00    +0.211 HD
ENDBRANCH   4  31
TORSDOF 11
ENDMDL
MODEL 9
REMARK VINA RESULT:    -5.560     31.879     34.325
REMARK INTER + INTRA:          -9.753
REMARK INTER:                  -9.374
REMARK INTRA:                  -0.379
REMARK UNBOUND:                -1.592
REMARK SMILES O=S(=O)(O)OC[C@@H]1O[C@H](O[C@H]2[C@@H]3OC[C@H]2O[C@@H](O)[C@H]3O)[C@@H](O)[C@H](O)[C@@H]1O
REMARK SMILES IDX 9 1 21 2 23 3 25 4 7 5 8 6 10 7 11 8 14 9 15 10 13 11 16 12
REMARK SMILES IDX 12 13 17 14 19 15 18 16 20 18 22 20 24 22 6 24 5 25 2 26
REMARK SMILES IDX 1 27 3 28 4 29 26 31
REMARK H PARENT 18 17 20 19 22 21 24 23 4 30 26 32
ROOT
ATOM      1  C   UNL     1      -9.834 -13.245  -1.818  1.00  0.00    +0.282 C 
ATOM      2  C   UNL     1      -9.520 -13.358  -3.322  1.00  0.00    +0.202 C 
ATOM      3  C   UNL     1     -10.652 -12.701  -4.093  1.00  0.00    +0.179 C 
ATOM      4  C   UNL     1     -10.684 -11.205  -3.769  1.00  0.00    +0.177 C 
ATOM      5  C   UNL     1     -10.335 -10.901  -2.292  1.00  0.00    +0.180 C 
ATOM      6  O   UNL     1     -10.512 -12.048  -1.439  1.00  0.00    -0.341 OA
ENDROOT
BRANCH   1   7
ATOM      7  O   UNL     1      -8.614 -13.451  -1.099  1.00  0.00    -0.341 OA
BRANCH   7   8
ATOM      8  C   UNL     1      -8.661 -12.946   0.231  1.00  0.00    +0.184 C 
ATOM      9  C   UNL     1      -7.649 -12.157   2.193  1.00  0.00    +0.195 C 
ATOM     10  C   UNL     1      -7.395 -12.237   0.687  1.00  0.00    +0.179 C 
ATOM     11  O   UNL     1      -8.405 -13.348   2.531  1.00  0.00    -0.370 OA
ATOM     12  O   UNL     1      -6.233 -13.015   0.346  1.00  0.00    -0.342 OA
ATOM     13  C   UNL     1      -8.654 -14.048   1.284  1.00  0.00    +0.184 C 
ATOM     14  C   UNL     1      -6.161 -14.320   0.910  1.00  0.00    +0.279 C 
ATOM     15  C   UNL     1      -7.522 -15.044   1.001  1.00  0.00    +0.202 C 
BRANCH  14  16
ATOM     16  O   UNL     1      -5.561 -14.228   2.200  1.00  0.00    -0.366 OA
ATOM     17  H   UNL     1      -4.614 -14.393   2.041  1.00  0.00    +0.213 HD
ENDBRANCH  14  16
BRANCH  15  18
ATOM     18  O   UNL     1      -7.492 -16.063   2.009  1.00  0.00    -0.385 OA
ATOM     19  H   UNL     1      -8.137 -15.752   2.679  1.00  0.00    +0.211 HD
ENDBRANCH  15  18
ENDBRANCH   7   8
ENDBRANCH   1   7
BRANCH   2  20
ATOM     20  O   UNL     1      -9.402 -14.731  -3.733  1.00  0.00    -0.385 OA
ATOM     21  H   UNL     1      -9.568 -14.740  -4.696  1.00  0.00    +0.211 HD
ENDBRANCH   2  20
BRANCH   3  22
ATOM     22  O   UNL     1     -10.462 -12.874  -5.508  1.00  0.00    -0.387 OA
ATOM     23  H   UNL     1     -10.780 -13.783  -5.693  1.00  0.00    +0.211 HD
ENDBRANCH   3  22
BRANCH   5  24
ATOM     24  C   UNL     1      -8.968 -10.227  -2.070  1.00  0.00    +0.220 C 
BRANCH  24  25
ATOM     25  O   UNL     1      -8.082 -10.649  -3.104  1.00  0.00    -0.245 OA
BRANCH  25  26
ATOM     26  S   UNL     1      -6.648  -9.898  -3.226  1.00  0.00    +0.397 S 
ATOM     27  O   UNL     1      -6.326  -9.671  -4.616  1.00  0.00    -0.169 OA
ATOM     28  O   UNL     1      -5.724 -10.535  -2.315  1.00  0.00    -0.169 OA
BRANCH  26  29
ATOM     29  O   UNL     1      -6.962  -8.468  -2.557  1.00  0.00    -0.264 OA
ATOM     30  H   UNL     1      -7.863  -8.212  -2.841  1.00  0.00    +0.236 HD
ENDBRANCH  26  29
ENDBRANCH  25  26
ENDBRANCH  24  25
ENDBRANCH   5  24
BRANCH   4  31
ATOM     31  O   UNL     1      -9.810 -10.511  -4.667  1.00  0.00    -0.387 OA
ATOM     32  H   UNL     1      -9.559  -9.690  -4.188  1.00  0.00    +0.211 HD
ENDBRANCH   4  31
TORSDOF 11
ENDMDL
