MODEL 1
REMARK VINA RESULT:    -7.137      0.000      0.000
REMARK INTER + INTRA:         -11.342
REMARK INTER:                 -10.475
REMARK INTRA:                  -0.867
REMARK UNBOUND:                -0.867
REMARK SMILES OC[C@@H]1O[C@@H](O[C@H]2[C@@H](O)[C@H](O)[C@@H](O)O[C@@H]2CO)[C@H](O)[C@@H](O)[C@@H]1O
REMARK SMILES IDX 6 1 5 2 3 3 22 4 4 5 20 6 18 7 2 8 1 9 23 11 21 13 19 15
REMARK SMILES IDX 7 17 15 18 8 19 14 20 10 21 12 22 16 23 17 24 9 26 11 28
REMARK SMILES IDX 13 30
REMARK H PARENT 1 10 23 12 21 14 19 16 17 25 9 27 11 29 13 31
ROOT
ATOM      1  O   UNL     1      18.113   6.027  26.912  1.00  0.00    -0.341 OA
ENDROOT
BRANCH   1   2
ATOM      2  C   UNL     1      17.897   7.224  27.662  1.00  0.00    +0.282 C 
ATOM      3  C   UNL     1      20.157   8.004  27.686  1.00  0.00    +0.178 C 
ATOM      4  C   UNL     1      20.276   7.995  29.228  1.00  0.00    +0.177 C 
ATOM      5  O   UNL     1      18.795   8.265  27.292  1.00  0.00    -0.341 OA
ATOM      6  C   UNL     1      18.897   7.899  29.886  1.00  0.00    +0.179 C 
ATOM      7  C   UNL     1      18.014   6.882  29.171  1.00  0.00    +0.202 C 
BRANCH   3   8
ATOM      8  C   UNL     1      21.075   9.014  26.981  1.00  0.00    +0.191 C 
BRANCH   8   9
ATOM      9  O   UNL     1      20.932   8.982  25.560  1.00  0.00    -0.394 OA
ATOM     10  H   UNL     1      20.320   8.237  25.381  1.00  0.00    +0.210 HD
ENDBRANCH   8   9
ENDBRANCH   3   8
BRANCH   4  11
ATOM     11  O   UNL     1      20.929   9.161  29.759  1.00  0.00    -0.387 OA
ATOM     12  H   UNL     1      21.886   8.963  29.702  1.00  0.00    +0.211 HD
ENDBRANCH   4  11
BRANCH   6  13
ATOM     13  O   UNL     1      19.068   7.542  31.268  1.00  0.00    -0.387 OA
ATOM     14  H   UNL     1      19.297   6.591  31.274  1.00  0.00    +0.211 HD
ENDBRANCH   6  13
BRANCH   7  15
ATOM     15  O   UNL     1      16.725   6.863  29.820  1.00  0.00    -0.385 OA
ATOM     16  H   UNL     1      16.266   7.695  29.603  1.00  0.00    +0.211 HD
ENDBRANCH   7  15
ENDBRANCH   1   2
BRANCH   1  17
ATOM     17  C   UNL     1      17.095   5.028  27.053  1.00  0.00    +0.184 C 
ATOM     18  C   UNL     1      17.751   3.665  26.720  1.00  0.00    +0.178 C 
ATOM     19  C   UNL     1      15.874   5.233  26.131  1.00  0.00    +0.180 C 
ATOM     20  O   UNL     1      16.818   2.651  26.288  1.00  0.00    -0.342 OA
ATOM     21  C   UNL     1      14.854   4.092  26.324  1.00  0.00    +0.201 C 
ATOM     22  C   UNL     1      15.531   2.813  26.858  1.00  0.00    +0.279 C 
BRANCH  18  23
ATOM     23  C   UNL     1      18.555   3.123  27.910  1.00  0.00    +0.191 C 
BRANCH  23  24
ATOM     24  O   UNL     1      19.711   3.933  28.128  1.00  0.00    -0.394 OA
ATOM     25  H   UNL     1      19.502   4.520  28.881  1.00  0.00    +0.210 HD
ENDBRANCH  23  24
ENDBRANCH  18  23
BRANCH  19  26
ATOM     26  O   UNL     1      16.297   5.301  24.755  1.00  0.00    -0.387 OA
ATOM     27  H   UNL     1      16.706   6.172  24.603  1.00  0.00    +0.211 HD
ENDBRANCH  19  26
BRANCH  21  28
ATOM     28  O   UNL     1      13.837   4.489  27.256  1.00  0.00    -0.385 OA
ATOM     29  H   UNL     1      14.169   4.236  28.137  1.00  0.00    +0.211 HD
ENDBRANCH  21  28
BRANCH  22  30
ATOM     30  O   UNL     1      14.729   1.697  26.505  1.00  0.00    -0.366 OA
ATOM     31  H   UNL     1      15.181   0.922  26.879  1.00  0.00    +0.213 HD
ENDBRANCH  22  30
ENDBRANCH   1  17
TORSDOF 12
ENDMDL
MODEL 2
REMARK VINA RESULT:    -7.011      1.871      3.198
REMARK INTER + INTRA:         -11.157
REMARK INTER:                 -10.147
REMARK INTRA:                  -1.010
REMARK UNBOUND:                -0.867
REMARK SMILES OC[C@@H]1O[C@@H](O[C@H]2[C@@H](O)[C@H](O)[C@@H](O)O[C@@H]2CO)[C@H](O)[C@@H](O)[C@@H]1O
REMARK SMILES IDX 6 1 5 2 3 3 22 4 4 5 20 6 18 7 2 8 1 9 23 11 21 13 19 15
REMARK SMILES IDX 7 17 15 18 8 19 14 20 10 21 12 22 16 23 17 24 9 26 11 28
REMARK SMILES IDX 13 30
REMARK H PARENT 1 10 23 12 21 14 19 16 17 25 9 27 11 29 13 31
ROOT
ATOM      1  O   UNL     1      18.166   5.427  28.724  1.00  0.00    -0.341 OA
ENDROOT
BRANCH   1   2
ATOM      2  C   UNL     1      18.230   6.855  28.754  1.00  0.00    +0.282 C 
ATOM      3  C   UNL     1      20.307   7.063  29.918  1.00  0.00    +0.178 C 
ATOM      4  C   UNL     1      19.707   7.850  31.106  1.00  0.00    +0.177 C 
ATOM      5  O   UNL     1      19.568   7.339  28.711  1.00  0.00    -0.341 OA
ATOM      6  C   UNL     1      18.318   8.394  30.761  1.00  0.00    +0.179 C 
ATOM      7  C   UNL     1      17.485   7.351  30.021  1.00  0.00    +0.202 C 
BRANCH   3   8
ATOM      8  C   UNL     1      21.796   7.340  29.656  1.00  0.00    +0.191 C 
BRANCH   8   9
ATOM      9  O   UNL     1      22.013   8.604  29.027  1.00  0.00    -0.394 OA
ATOM     10  H   UNL     1      22.922   8.554  28.661  1.00  0.00    +0.210 HD
ENDBRANCH   8   9
ENDBRANCH   3   8
BRANCH   4  11
ATOM     11  O   UNL     1      20.515   8.964  31.523  1.00  0.00    -0.387 OA
ATOM     12  H   UNL     1      21.330   8.562  31.890  1.00  0.00    +0.211 HD
ENDBRANCH   4  11
BRANCH   6  13
ATOM     13  O   UNL     1      17.664   8.799  31.975  1.00  0.00    -0.387 OA
ATOM     14  H   UNL     1      16.713   8.874  31.757  1.00  0.00    +0.211 HD
ENDBRANCH   6  13
BRANCH   7  15
ATOM     15  O   UNL     1      16.205   7.935  29.701  1.00  0.00    -0.385 OA
ATOM     16  H   UNL     1      15.848   7.469  28.922  1.00  0.00    +0.211 HD
ENDBRANCH   7  15
ENDBRANCH   1   2
BRANCH   1  17
ATOM     17  C   UNL     1      18.333   4.837  27.428  1.00  0.00    +0.184 C 
ATOM     18  C   UNL     1      17.104   3.927  27.186  1.00  0.00    +0.178 C 
ATOM     19  C   UNL     1      19.617   3.996  27.276  1.00  0.00    +0.180 C 
ATOM     20  O   UNL     1      17.333   2.870  26.228  1.00  0.00    -0.342 OA
ATOM     21  C   UNL     1      19.690   3.371  25.868  1.00  0.00    +0.201 C 
ATOM     22  C   UNL     1      18.287   3.223  25.242  1.00  0.00    +0.279 C 
BRANCH  18  23
ATOM     23  C   UNL     1      15.880   4.740  26.742  1.00  0.00    +0.191 C 
BRANCH  23  24
ATOM     24  O   UNL     1      16.294   6.005  26.226  1.00  0.00    -0.394 OA
ATOM     25  H   UNL     1      15.721   6.678  26.642  1.00  0.00    +0.210 HD
ENDBRANCH  23  24
ENDBRANCH  18  23
BRANCH  19  26
ATOM     26  O   UNL     1      19.659   2.967  28.284  1.00  0.00    -0.387 OA
ATOM     27  H   UNL     1      19.072   3.231  29.016  1.00  0.00    +0.211 HD
ENDBRANCH  19  26
BRANCH  21  28
ATOM     28  O   UNL     1      20.488   4.192  25.002  1.00  0.00    -0.385 OA
ATOM     29  H   UNL     1      21.201   4.554  25.560  1.00  0.00    +0.211 HD
ENDBRANCH  21  28
BRANCH  22  30
ATOM     30  O   UNL     1      18.336   2.197  24.264  1.00  0.00    -0.366 OA
ATOM     31  H   UNL     1      18.463   1.370  24.758  1.00  0.00    +0.213 HD
ENDBRANCH  22  30
ENDBRANCH   1  17
TORSDOF 12
ENDMDL
MODEL 3
REMARK VINA RESULT:    -6.874      1.890      2.476
REMARK INTER + INTRA:         -10.956
REMARK INTER:                 -10.149
REMARK INTRA:                  -0.807
REMARK UNBOUND:                -0.867
REMARK SMILES OC[C@@H]1O[C@@H](O[C@H]2[C@@H](O)[C@H](O)[C@@H](O)O[C@@H]2CO)[C@H](O)[C@@H](O)[C@@H]1O
REMARK SMILES IDX 6 1 5 2 3 3 22 4 4 5 20 6 18 7 2 8 1 9 23 11 21 13 19 15
REMARK SMILES IDX 7 17 15 18 8 19 14 20 10 21 12 22 16 23 17 24 9 26 11 28
REMARK SMILES IDX 13 30
REMARK H PARENT 1 10 23 12 21 14 19 16 17 25 9 27 11 29 13 31
ROOT
ATOM      1  O   UNL     1      19.856   5.782  26.750  1.00  0.00    -0.341 OA
ENDROOT
BRANCH   1   2
ATOM      2  C   UNL     1      19.241   7.002  27.173  1.00  0.00    +0.282 C 
ATOM      3  C   UNL     1      20.325   7.194  29.295  1.00  0.00    +0.178 C 
ATOM      4  C   UNL     1      19.011   7.168  30.109  1.00  0.00    +0.177 C 
ATOM      5  O   UNL     1      20.098   7.783  27.999  1.00  0.00    -0.341 OA
ATOM      6  C   UNL     1      17.799   7.424  29.209  1.00  0.00    +0.179 C 
ATOM      7  C   UNL     1      17.914   6.653  27.897  1.00  0.00    +0.202 C 
BRANCH   3   8
ATOM      8  C   UNL     1      21.483   7.939  29.976  1.00  0.00    +0.191 C 
BRANCH   8   9
ATOM      9  O   UNL     1      21.360   9.358  29.866  1.00  0.00    -0.394 OA
ATOM     10  H   UNL     1      20.395   9.533  29.890  1.00  0.00    +0.210 HD
ENDBRANCH   8   9
ENDBRANCH   3   8
BRANCH   4  11
ATOM     11  O   UNL     1      18.974   8.139  31.170  1.00  0.00    -0.387 OA
ATOM     12  H   UNL     1      19.589   7.794  31.850  1.00  0.00    +0.211 HD
ENDBRANCH   4  11
BRANCH   6  13
ATOM     13  O   UNL     1      16.607   7.046  29.918  1.00  0.00    -0.387 OA
ATOM     14  H   UNL     1      16.605   6.068  29.940  1.00  0.00    +0.211 HD
ENDBRANCH   6  13
BRANCH   7  15
ATOM     15  O   UNL     1      16.761   6.961  27.087  1.00  0.00    -0.385 OA
ATOM     16  H   UNL     1      16.689   6.279  26.394  1.00  0.00    +0.211 HD
ENDBRANCH   7  15
ENDBRANCH   1   2
BRANCH   1  17
ATOM     17  C   UNL     1      18.973   4.658  26.646  1.00  0.00    +0.184 C 
ATOM     18  C   UNL     1      19.805   3.398  26.986  1.00  0.00    +0.178 C 
ATOM     19  C   UNL     1      18.340   4.478  25.251  1.00  0.00    +0.180 C 
ATOM     20  O   UNL     1      19.275   2.173  26.434  1.00  0.00    -0.342 OA
ATOM     21  C   UNL     1      17.440   3.225  25.224  1.00  0.00    +0.201 C 
ATOM     22  C   UNL     1      17.865   2.201  26.297  1.00  0.00    +0.279 C 
BRANCH  18  23
ATOM     23  C   UNL     1      19.971   3.225  28.503  1.00  0.00    +0.191 C 
BRANCH  23  24
ATOM     24  O   UNL     1      20.716   2.039  28.781  1.00  0.00    -0.394 OA
ATOM     25  H   UNL     1      21.659   2.295  28.784  1.00  0.00    +0.210 HD
ENDBRANCH  23  24
ENDBRANCH  18  23
BRANCH  19  26
ATOM     26  O   UNL     1      19.369   4.378  24.248  1.00  0.00    -0.387 OA
ATOM     27  H   UNL     1      18.997   3.920  23.472  1.00  0.00    +0.211 HD
ENDBRANCH  19  26
BRANCH  21  28
ATOM     28  O   UNL     1      16.073   3.591  25.464  1.00  0.00    -0.385 OA
ATOM     29  H   UNL     1      15.705   2.891  26.037  1.00  0.00    +0.211 HD
ENDBRANCH  21  28
BRANCH  22  30
ATOM     30  O   UNL     1      17.418   0.915  25.896  1.00  0.00    -0.366 OA
ATOM     31  H   UNL     1      18.216   0.438  25.616  1.00  0.00    +0.213 HD
ENDBRANCH  22  30
ENDBRANCH   1  17
TORSDOF 12
ENDMDL
MODEL 4
REMARK VINA RESULT:    -6.849      1.751      3.245
REMARK INTER + INTRA:         -10.918
REMARK INTER:                 -10.209
REMARK INTRA:                  -0.710
REMARK UNBOUND:                -0.867
REMARK SMILES OC[C@@H]1O[C@@H](O[C@H]2[C@@H](O)[C@H](O)[C@@H](O)O[C@@H]2CO)[C@H](O)[C@@H](O)[C@@H]1O
REMARK SMILES IDX 6 1 5 2 3 3 22 4 4 5 20 6 18 7 2 8 1 9 23 11 21 13 19 15
REMARK SMILES IDX 7 17 15 18 8 19 14 20 10 21 12 22 16 23 17 24 9 26 11 28
REMARK SMILES IDX 13 30
REMARK H PARENT 1 10 23 12 21 14 19 16 17 25 9 27 11 29 13 31
ROOT
ATOM      1  O   UNL     1      17.681   4.353  28.436  1.00  0.00    -0.341 OA
ENDROOT
BRANCH   1   2
ATOM      2  C   UNL     1      17.123   5.664  28.311  1.00  0.00    +0.282 C 
ATOM      3  C   UNL     1      19.158   6.846  27.896  1.00  0.00    +0.178 C 
ATOM      4  C   UNL     1      19.024   7.763  29.135  1.00  0.00    +0.177 C 
ATOM      5  O   UNL     1      17.854   6.480  27.403  1.00  0.00    -0.341 OA
ATOM      6  C   UNL     1      17.600   7.726  29.696  1.00  0.00    +0.179 C 
ATOM      7  C   UNL     1      17.055   6.302  29.723  1.00  0.00    +0.202 C 
BRANCH   3   8
ATOM      8  C   UNL     1      19.969   7.450  26.740  1.00  0.00    +0.191 C 
BRANCH   8   9
ATOM      9  O   UNL     1      20.410   6.462  25.808  1.00  0.00    -0.394 OA
ATOM     10  H   UNL     1      21.387   6.455  25.886  1.00  0.00    +0.210 HD
ENDBRANCH   8   9
ENDBRANCH   3   8
BRANCH   4  11
ATOM     11  O   UNL     1      19.348   9.138  28.867  1.00  0.00    -0.387 OA
ATOM     12  H   UNL     1      19.926   9.412  29.610  1.00  0.00    +0.211 HD
ENDBRANCH   4  11
BRANCH   6  13
ATOM     13  O   UNL     1      17.609   8.293  31.017  1.00  0.00    -0.387 OA
ATOM     14  H   UNL     1      16.681   8.533  31.213  1.00  0.00    +0.211 HD
ENDBRANCH   6  13
BRANCH   7  15
ATOM     15  O   UNL     1      15.705   6.342  30.232  1.00  0.00    -0.385 OA
ATOM     16  H   UNL     1      15.324   7.211  30.009  1.00  0.00    +0.211 HD
ENDBRANCH   7  15
ENDBRANCH   1   2
BRANCH   1  17
ATOM     17  C   UNL     1      17.980   3.698  27.197  1.00  0.00    +0.184 C 
ATOM     18  C   UNL     1      17.079   2.441  27.123  1.00  0.00    +0.178 C 
ATOM     19  C   UNL     1      19.454   3.267  27.047  1.00  0.00    +0.180 C 
ATOM     20  O   UNL     1      17.588   1.400  26.261  1.00  0.00    -0.342 OA
ATOM     21  C   UNL     1      19.669   2.537  25.706  1.00  0.00    +0.201 C 
ATOM     22  C   UNL     1      18.360   1.908  25.187  1.00  0.00    +0.279 C 
BRANCH  18  23
ATOM     23  C   UNL     1      15.652   2.796  26.680  1.00  0.00    +0.191 C 
BRANCH  23  24
ATOM     24  O   UNL     1      14.822   1.635  26.730  1.00  0.00    -0.394 OA
ATOM     25  H   UNL     1      15.330   0.910  26.316  1.00  0.00    +0.210 HD
ENDBRANCH  23  24
ENDBRANCH  18  23
BRANCH  19  26
ATOM     26  O   UNL     1      19.836   2.418  28.147  1.00  0.00    -0.387 OA
ATOM     27  H   UNL     1      19.305   1.602  28.104  1.00  0.00    +0.211 HD
ENDBRANCH  19  26
BRANCH  21  28
ATOM     28  O   UNL     1      20.154   3.456  24.714  1.00  0.00    -0.385 OA
ATOM     29  H   UNL     1      19.913   3.069  23.851  1.00  0.00    +0.211 HD
ENDBRANCH  21  28
BRANCH  22  30
ATOM     30  O   UNL     1      18.688   0.839  24.313  1.00  0.00    -0.366 OA
ATOM     31  H   UNL     1      17.879   0.307  24.237  1.00  0.00    +0.213 HD
ENDBRANCH  22  30
ENDBRANCH   1  17
TORSDOF 12
ENDMDL
MODEL 5
REMARK VINA RESULT:    -6.568      1.906      6.523
REMARK INTER + INTRA:         -10.506
REMARK INTER:                  -9.658
REMARK INTRA:                  -0.848
REMARK UNBOUND:                -0.867
REMARK SMILES OC[C@@H]1O[C@@H](O[C@H]2[C@@H](O)[C@H](O)[C@@H](O)O[C@@H]2CO)[C@H](O)[C@@H](O)[C@@H]1O
REMARK SMILES IDX 6 1 5 2 3 3 22 4 4 5 20 6 18 7 2 8 1 9 23 11 21 13 19 15
REMARK SMILES IDX 7 17 15 18 8 19 14 20 10 21 12 22 16 23 17 24 9 26 11 28
REMARK SMILES IDX 13 30
REMARK H PARENT 1 10 23 12 21 14 19 16 17 25 9 27 11 29 13 31
ROOT
ATOM      1  O   UNL     1      18.664   5.128  28.979  1.00  0.00    -0.341 OA
ENDROOT
BRANCH   1   2
ATOM      2  C   UNL     1      18.555   5.678  27.664  1.00  0.00    +0.282 C 
ATOM      3  C   UNL     1      16.933   4.147  26.804  1.00  0.00    +0.178 C 
ATOM      4  C   UNL     1      17.840   3.634  25.661  1.00  0.00    +0.177 C 
ATOM      5  O   UNL     1      17.251   5.519  27.115  1.00  0.00    -0.341 OA
ATOM      6  C   UNL     1      19.031   4.570  25.439  1.00  0.00    +0.179 C 
ATOM      7  C   UNL     1      19.635   5.018  26.767  1.00  0.00    +0.202 C 
BRANCH   3   8
ATOM      8  C   UNL     1      15.427   4.045  26.518  1.00  0.00    +0.191 C 
BRANCH   8   9
ATOM      9  O   UNL     1      15.018   2.710  26.219  1.00  0.00    -0.394 OA
ATOM     10  H   UNL     1      15.850   2.196  26.154  1.00  0.00    +0.210 HD
ENDBRANCH   8   9
ENDBRANCH   3   8
BRANCH   4  11
ATOM     11  O   UNL     1      17.156   3.500  24.403  1.00  0.00    -0.387 OA
ATOM     12  H   UNL     1      16.317   3.994  24.517  1.00  0.00    +0.211 HD
ENDBRANCH   4  11
BRANCH   6  13
ATOM     13  O   UNL     1      20.011   3.890  24.638  1.00  0.00    -0.387 OA
ATOM     14  H   UNL     1      19.508   3.322  24.021  1.00  0.00    +0.211 HD
ENDBRANCH   6  13
BRANCH   7  15
ATOM     15  O   UNL     1      20.728   5.917  26.488  1.00  0.00    -0.385 OA
ATOM     16  H   UNL     1      20.388   6.642  25.933  1.00  0.00    +0.211 HD
ENDBRANCH   7  15
ENDBRANCH   1   2
BRANCH   1  17
ATOM     17  C   UNL     1      18.909   6.082  30.020  1.00  0.00    +0.184 C 
ATOM     18  C   UNL     1      18.464   7.463  29.480  1.00  0.00    +0.178 C 
ATOM     19  C   UNL     1      20.385   6.170  30.463  1.00  0.00    +0.180 C 
ATOM     20  O   UNL     1      19.102   8.584  30.130  1.00  0.00    -0.342 OA
ATOM     21  C   UNL     1      20.557   7.246  31.554  1.00  0.00    +0.201 C 
ATOM     22  C   UNL     1      19.445   8.312  31.477  1.00  0.00    +0.279 C 
BRANCH  18  23
ATOM     23  C   UNL     1      16.942   7.639  29.572  1.00  0.00    +0.191 C 
BRANCH  23  24
ATOM     24  O   UNL     1      16.342   6.448  30.082  1.00  0.00    -0.394 OA
ATOM     25  H   UNL     1      15.911   6.006  29.325  1.00  0.00    +0.210 HD
ENDBRANCH  23  24
ENDBRANCH  18  23
BRANCH  19  26
ATOM     26  O   UNL     1      21.226   6.463  29.331  1.00  0.00    -0.387 OA
ATOM     27  H   UNL     1      20.674   6.458  28.529  1.00  0.00    +0.211 HD
ENDBRANCH  19  26
BRANCH  21  28
ATOM     28  O   UNL     1      20.517   6.643  32.857  1.00  0.00    -0.385 OA
ATOM     29  H   UNL     1      20.480   7.383  33.492  1.00  0.00    +0.211 HD
ENDBRANCH  21  28
BRANCH  22  30
ATOM     30  O   UNL     1      19.922   9.506  32.078  1.00  0.00    -0.366 OA
ATOM     31  H   UNL     1      19.440   9.586  32.918  1.00  0.00    +0.213 HD
ENDBRANCH  22  30
ENDBRANCH   1  17
TORSDOF 12
ENDMDL
MODEL 6
REMARK VINA RESULT:    -6.529      1.419      2.002
REMARK INTER + INTRA:         -10.449
REMARK INTER:                  -9.379
REMARK INTRA:                  -1.070
REMARK UNBOUND:                -0.867
REMARK SMILES OC[C@@H]1O[C@@H](O[C@H]2[C@@H](O)[C@H](O)[C@@H](O)O[C@@H]2CO)[C@H](O)[C@@H](O)[C@@H]1O
REMARK SMILES IDX 6 1 5 2 3 3 22 4 4 5 20 6 18 7 2 8 1 9 23 11 21 13 19 15
REMARK SMILES IDX 7 17 15 18 8 19 14 20 10 21 12 22 16 23 17 24 9 26 11 28
REMARK SMILES IDX 13 30
REMARK H PARENT 1 10 23 12 21 14 19 16 17 25 9 27 11 29 13 31
ROOT
ATOM      1  O   UNL     1      18.955   6.252  28.153  1.00  0.00    -0.341 OA
ENDROOT
BRANCH   1   2
ATOM      2  C   UNL     1      18.829   7.626  28.530  1.00  0.00    +0.282 C 
ATOM      3  C   UNL     1      21.146   8.206  28.426  1.00  0.00    +0.178 C 
ATOM      4  C   UNL     1      21.237   8.622  29.913  1.00  0.00    +0.177 C 
ATOM      5  O   UNL     1      19.818   8.448  27.920  1.00  0.00    -0.341 OA
ATOM      6  C   UNL     1      19.843   8.822  30.515  1.00  0.00    +0.179 C 
ATOM      7  C   UNL     1      18.889   7.715  30.077  1.00  0.00    +0.202 C 
BRANCH   3   8
ATOM      8  C   UNL     1      22.158   8.903  27.505  1.00  0.00    +0.191 C 
BRANCH   8   9
ATOM      9  O   UNL     1      21.756   8.878  26.134  1.00  0.00    -0.394 OA
ATOM     10  H   UNL     1      20.791   8.705  26.154  1.00  0.00    +0.210 HD
ENDBRANCH   8   9
ENDBRANCH   3   8
BRANCH   4  11
ATOM     11  O   UNL     1      21.977   9.837  30.123  1.00  0.00    -0.387 OA
ATOM     12  H   UNL     1      21.981  10.285  29.251  1.00  0.00    +0.211 HD
ENDBRANCH   4  11
BRANCH   6  13
ATOM     13  O   UNL     1      19.959   8.856  31.948  1.00  0.00    -0.387 OA
ATOM     14  H   UNL     1      20.917   8.900  32.139  1.00  0.00    +0.211 HD
ENDBRANCH   6  13
BRANCH   7  15
ATOM     15  O   UNL     1      17.593   7.978  30.653  1.00  0.00    -0.385 OA
ATOM     16  H   UNL     1      17.485   8.944  30.723  1.00  0.00    +0.211 HD
ENDBRANCH   7  15
ENDBRANCH   1   2
BRANCH   1  17
ATOM     17  C   UNL     1      17.812   5.694  27.493  1.00  0.00    +0.184 C 
ATOM     18  C   UNL     1      17.483   4.362  28.210  1.00  0.00    +0.178 C 
ATOM     19  C   UNL     1      18.022   5.415  25.990  1.00  0.00    +0.180 C 
ATOM     20  O   UNL     1      16.747   3.421  27.398  1.00  0.00    -0.342 OA
ATOM     21  C   UNL     1      16.757   4.781  25.376  1.00  0.00    +0.201 C 
ATOM     22  C   UNL     1      15.913   4.056  26.445  1.00  0.00    +0.279 C 
BRANCH  18  23
ATOM     23  C   UNL     1      16.710   4.600  29.514  1.00  0.00    +0.191 C 
BRANCH  23  24
ATOM     24  O   UNL     1      16.078   5.881  29.480  1.00  0.00    -0.394 OA
ATOM     25  H   UNL     1      15.268   5.807  30.021  1.00  0.00    +0.210 HD
ENDBRANCH  23  24
ENDBRANCH  18  23
BRANCH  19  26
ATOM     26  O   UNL     1      19.159   4.551  25.799  1.00  0.00    -0.387 OA
ATOM     27  H   UNL     1      19.329   4.474  24.843  1.00  0.00    +0.211 HD
ENDBRANCH  19  26
BRANCH  21  28
ATOM     28  O   UNL     1      15.942   5.793  24.765  1.00  0.00    -0.385 OA
ATOM     29  H   UNL     1      16.532   6.554  24.612  1.00  0.00    +0.211 HD
ENDBRANCH  21  28
BRANCH  22  30
ATOM     30  O   UNL     1      15.119   3.071  25.802  1.00  0.00    -0.366 OA
ATOM     31  H   UNL     1      15.679   2.280  25.748  1.00  0.00    +0.213 HD
ENDBRANCH  22  30
ENDBRANCH   1  17
TORSDOF 12
ENDMDL
MODEL 7
REMARK VINA RESULT:    -6.519      1.531      6.323
REMARK INTER + INTRA:         -10.435
REMARK INTER:                  -9.585
REMARK INTRA:                  -0.850
REMARK UNBOUND:                -0.867
REMARK SMILES OC[C@@H]1O[C@@H](O[C@H]2[C@@H](O)[C@H](O)[C@@H](O)O[C@@H]2CO)[C@H](O)[C@@H](O)[C@@H]1O
REMARK SMILES IDX 6 1 5 2 3 3 22 4 4 5 20 6 18 7 2 8 1 9 23 11 21 13 19 15
REMARK SMILES IDX 7 17 15 18 8 19 14 20 10 21 12 22 16 23 17 24 9 26 11 28
REMARK SMILES IDX 13 30
REMARK H PARENT 1 10 23 12 21 14 19 16 17 25 9 27 11 29 13 31
ROOT
ATOM      1  O   UNL     1      19.453   5.123  28.256  1.00  0.00    -0.341 OA
ENDROOT
BRANCH   1   2
ATOM      2  C   UNL     1      19.434   4.291  27.093  1.00  0.00    +0.282 C 
ATOM      3  C   UNL     1      17.078   3.892  27.019  1.00  0.00    +0.178 C 
ATOM      4  C   UNL     1      17.207   2.356  27.152  1.00  0.00    +0.177 C 
ATOM      5  O   UNL     1      18.231   4.434  26.345  1.00  0.00    -0.341 OA
ATOM      6  C   UNL     1      18.641   1.898  26.872  1.00  0.00    +0.179 C 
ATOM      7  C   UNL     1      19.655   2.822  27.540  1.00  0.00    +0.202 C 
BRANCH   3   8
ATOM      8  C   UNL     1      15.813   4.365  26.287  1.00  0.00    +0.191 C 
BRANCH   8   9
ATOM      9  O   UNL     1      15.909   5.723  25.853  1.00  0.00    -0.394 OA
ATOM     10  H   UNL     1      15.698   5.700  24.896  1.00  0.00    +0.210 HD
ENDBRANCH   8   9
ENDBRANCH   3   8
BRANCH   4  11
ATOM     11  O   UNL     1      16.341   1.630  26.263  1.00  0.00    -0.387 OA
ATOM     12  H   UNL     1      16.209   2.225  25.496  1.00  0.00    +0.211 HD
ENDBRANCH   4  11
BRANCH   6  13
ATOM     13  O   UNL     1      18.796   0.549  27.343  1.00  0.00    -0.387 OA
ATOM     14  H   UNL     1      18.052   0.043  26.959  1.00  0.00    +0.211 HD
ENDBRANCH   6  13
BRANCH   7  15
ATOM     15  O   UNL     1      20.981   2.354  27.214  1.00  0.00    -0.385 OA
ATOM     16  H   UNL     1      21.066   2.344  26.243  1.00  0.00    +0.211 HD
ENDBRANCH   7  15
ENDBRANCH   1   2
BRANCH   1  17
ATOM     17  C   UNL     1      20.013   6.428  28.061  1.00  0.00    +0.184 C 
ATOM     18  C   UNL     1      19.805   7.210  29.381  1.00  0.00    +0.178 C 
ATOM     19  C   UNL     1      19.376   7.224  26.903  1.00  0.00    +0.180 C 
ATOM     20  O   UNL     1      19.801   8.645  29.223  1.00  0.00    -0.342 OA
ATOM     21  C   UNL     1      20.012   8.625  26.796  1.00  0.00    +0.201 C 
ATOM     22  C   UNL     1      20.611   9.078  28.144  1.00  0.00    +0.279 C 
BRANCH  18  23
ATOM     23  C   UNL     1      20.858   6.831  30.432  1.00  0.00    +0.191 C 
BRANCH  23  24
ATOM     24  O   UNL     1      20.218   6.457  31.652  1.00  0.00    -0.394 OA
ATOM     25  H   UNL     1      19.527   5.809  31.418  1.00  0.00    +0.210 HD
ENDBRANCH  23  24
ENDBRANCH  18  23
BRANCH  19  26
ATOM     26  O   UNL     1      17.953   7.333  27.099  1.00  0.00    -0.387 OA
ATOM     27  H   UNL     1      17.538   6.503  26.803  1.00  0.00    +0.211 HD
ENDBRANCH  19  26
BRANCH  21  28
ATOM     28  O   UNL     1      21.060   8.620  25.814  1.00  0.00    -0.385 OA
ATOM     29  H   UNL     1      20.656   8.277  24.995  1.00  0.00    +0.211 HD
ENDBRANCH  21  28
BRANCH  22  30
ATOM     30  O   UNL     1      20.671  10.496  28.157  1.00  0.00    -0.366 OA
ATOM     31  H   UNL     1      19.765  10.797  27.980  1.00  0.00    +0.213 HD
ENDBRANCH  22  30
ENDBRANCH   1  17
TORSDOF 12
ENDMDL
MODEL 8
REMARK VINA RESULT:    -6.498      2.248      3.881
REMARK INTER + INTRA:         -10.404
REMARK INTER:                  -9.752
REMARK INTRA:                  -0.652
REMARK UNBOUND:                -0.867
REMARK SMILES OC[C@@H]1O[C@@H](O[C@H]2[C@@H](O)[C@H](O)[C@@H](O)O[C@@H]2CO)[C@H](O)[C@@H](O)[C@@H]1O
REMARK SMILES IDX 6 1 5 2 3 3 22 4 4 5 20 6 18 7 2 8 1 9 23 11 21 13 19 15
REMARK SMILES IDX 7 17 15 18 8 19 14 20 10 21 12 22 16 23 17 24 9 26 11 28
REMARK SMILES IDX 13 30
REMARK H PARENT 1 10 23 12 21 14 19 16 17 25 9 27 11 29 13 31
ROOT
ATOM      1  O   UNL     1      19.664   5.927  27.652  1.00  0.00    -0.341 OA
ENDROOT
BRANCH   1   2
ATOM      2  C   UNL     1      19.691   5.660  29.057  1.00  0.00    +0.282 C 
ATOM      3  C   UNL     1      18.695   7.705  29.795  1.00  0.00    +0.178 C 
ATOM      4  C   UNL     1      19.910   8.133  30.651  1.00  0.00    +0.177 C 
ATOM      5  O   UNL     1      18.601   6.267  29.744  1.00  0.00    -0.341 OA
ATOM      6  C   UNL     1      20.857   6.954  30.891  1.00  0.00    +0.179 C 
ATOM      7  C   UNL     1      21.055   6.137  29.618  1.00  0.00    +0.202 C 
BRANCH   3   8
ATOM      8  C   UNL     1      17.348   8.268  30.272  1.00  0.00    +0.191 C 
BRANCH   8   9
ATOM      9  O   UNL     1      16.235   7.573  29.708  1.00  0.00    -0.394 OA
ATOM     10  H   UNL     1      15.514   8.236  29.665  1.00  0.00    +0.210 HD
ENDBRANCH   8   9
ENDBRANCH   3   8
BRANCH   4  11
ATOM     11  O   UNL     1      19.545   8.663  31.937  1.00  0.00    -0.387 OA
ATOM     12  H   UNL     1      18.617   8.959  31.835  1.00  0.00    +0.211 HD
ENDBRANCH   4  11
BRANCH   6  13
ATOM     13  O   UNL     1      22.114   7.461  31.372  1.00  0.00    -0.387 OA
ATOM     14  H   UNL     1      22.467   8.028  30.657  1.00  0.00    +0.211 HD
ENDBRANCH   6  13
BRANCH   7  15
ATOM     15  O   UNL     1      21.931   5.031  29.920  1.00  0.00    -0.385 OA
ATOM     16  H   UNL     1      21.413   4.208  29.845  1.00  0.00    +0.211 HD
ENDBRANCH   7  15
ENDBRANCH   1   2
BRANCH   1  17
ATOM     17  C   UNL     1      19.310   4.810  26.827  1.00  0.00    +0.184 C 
ATOM     18  C   UNL     1      17.849   4.435  27.178  1.00  0.00    +0.178 C 
ATOM     19  C   UNL     1      20.206   3.569  27.022  1.00  0.00    +0.180 C 
ATOM     20  O   UNL     1      17.502   3.066  26.874  1.00  0.00    -0.342 OA
ATOM     21  C   UNL     1      19.726   2.410  26.125  1.00  0.00    +0.201 C 
ATOM     22  C   UNL     1      18.230   2.549  25.774  1.00  0.00    +0.279 C 
BRANCH  18  23
ATOM     23  C   UNL     1      16.846   5.365  26.481  1.00  0.00    +0.191 C 
BRANCH  23  24
ATOM     24  O   UNL     1      17.009   6.702  26.956  1.00  0.00    -0.394 OA
ATOM     25  H   UNL     1      17.965   6.829  27.112  1.00  0.00    +0.210 HD
ENDBRANCH  23  24
ENDBRANCH  18  23
BRANCH  19  26
ATOM     26  O   UNL     1      20.202   3.168  28.406  1.00  0.00    -0.387 OA
ATOM     27  H   UNL     1      20.680   2.321  28.481  1.00  0.00    +0.211 HD
ENDBRANCH  19  26
BRANCH  21  28
ATOM     28  O   UNL     1      20.478   2.385  24.902  1.00  0.00    -0.385 OA
ATOM     29  H   UNL     1      21.399   2.588  25.152  1.00  0.00    +0.211 HD
ENDBRANCH  21  28
BRANCH  22  30
ATOM     30  O   UNL     1      17.721   1.264  25.452  1.00  0.00    -0.366 OA
ATOM     31  H   UNL     1      17.004   1.101  26.086  1.00  0.00    +0.213 HD
ENDBRANCH  22  30
ENDBRANCH   1  17
TORSDOF 12
ENDMDL
MODEL 9
REMARK VINA RESULT:    -6.407      3.378      5.125
REMARK INTER + INTRA:         -10.271
REMARK INTER:                  -9.268
REMARK INTRA:                  -1.002
REMARK UNBOUND:                -0.867
REMARK SMILES OC[C@@H]1O[C@@H](O[C@H]2[C@@H](O)[C@H](O)[C@@H](O)O[C@@H]2CO)[C@H](O)[C@@H](O)[C@@H]1O
REMARK SMILES IDX 6 1 5 2 3 3 22 4 4 5 20 6 18 7 2 8 1 9 23 11 21 13 19 15
REMARK SMILES IDX 7 17 15 18 8 19 14 20 10 21 12 22 16 23 17 24 9 26 11 28
REMARK SMILES IDX 13 30
REMARK H PARENT 1 10 23 12 21 14 19 16 17 25 9 27 11 29 13 31
ROOT
ATOM      1  O   UNL     1      18.700   3.662  27.305  1.00  0.00    -0.341 OA
ENDROOT
BRANCH   1   2
ATOM      2  C   UNL     1      19.532   2.500  27.328  1.00  0.00    +0.282 C 
ATOM      3  C   UNL     1      21.590   3.584  27.877  1.00  0.00    +0.178 C 
ATOM      4  C   UNL     1      22.322   3.118  26.597  1.00  0.00    +0.177 C 
ATOM      5  O   UNL     1      20.597   2.614  28.266  1.00  0.00    -0.341 OA
ATOM      6  C   UNL     1      21.563   1.978  25.912  1.00  0.00    +0.179 C 
ATOM      7  C   UNL     1      20.062   2.250  25.892  1.00  0.00    +0.202 C 
BRANCH   3   8
ATOM      8  C   UNL     1      22.511   3.851  29.078  1.00  0.00    +0.191 C 
BRANCH   8   9
ATOM      9  O   UNL     1      23.105   2.656  29.587  1.00  0.00    -0.394 OA
ATOM     10  H   UNL     1      23.220   2.075  28.805  1.00  0.00    +0.210 HD
ENDBRANCH   8   9
ENDBRANCH   3   8
BRANCH   4  11
ATOM     11  O   UNL     1      23.664   2.659  26.839  1.00  0.00    -0.387 OA
ATOM     12  H   UNL     1      23.683   1.741  26.499  1.00  0.00    +0.211 HD
ENDBRANCH   4  11
BRANCH   6  13
ATOM     13  O   UNL     1      22.070   1.821  24.577  1.00  0.00    -0.387 OA
ATOM     14  H   UNL     1      21.286   1.712  24.002  1.00  0.00    +0.211 HD
ENDBRANCH   6  13
BRANCH   7  15
ATOM     15  O   UNL     1      19.406   1.129  25.262  1.00  0.00    -0.385 OA
ATOM     16  H   UNL     1      18.490   1.392  25.059  1.00  0.00    +0.211 HD
ENDBRANCH   7  15
ENDBRANCH   1   2
BRANCH   1  17
ATOM     17  C   UNL     1      17.372   3.451  26.809  1.00  0.00    +0.184 C 
ATOM     18  C   UNL     1      16.973   4.728  26.029  1.00  0.00    +0.178 C 
ATOM     19  C   UNL     1      16.321   3.188  27.907  1.00  0.00    +0.180 C 
ATOM     20  O   UNL     1      15.548   4.934  25.923  1.00  0.00    -0.342 OA
ATOM     21  C   UNL     1      14.921   3.013  27.284  1.00  0.00    +0.201 C 
ATOM     22  C   UNL     1      14.819   3.719  25.916  1.00  0.00    +0.279 C 
BRANCH  18  23
ATOM     23  C   UNL     1      17.581   4.738  24.619  1.00  0.00    +0.191 C 
BRANCH  23  24
ATOM     24  O   UNL     1      18.963   5.091  24.684  1.00  0.00    -0.394 OA
ATOM     25  H   UNL     1      19.313   4.695  25.506  1.00  0.00    +0.210 HD
ENDBRANCH  23  24
ENDBRANCH  18  23
BRANCH  19  26
ATOM     26  O   UNL     1      16.315   4.270  28.859  1.00  0.00    -0.387 OA
ATOM     27  H   UNL     1      15.946   3.938  29.698  1.00  0.00    +0.211 HD
ENDBRANCH  19  26
BRANCH  21  28
ATOM     28  O   UNL     1      14.632   1.619  27.096  1.00  0.00    -0.385 OA
ATOM     29  H   UNL     1      13.880   1.584  26.476  1.00  0.00    +0.211 HD
ENDBRANCH  21  28
BRANCH  22  30
ATOM     30  O   UNL     1      13.454   4.006  25.656  1.00  0.00    -0.366 OA
ATOM     31  H   UNL     1      13.457   4.677  24.954  1.00  0.00    +0.213 HD
ENDBRANCH  22  30
ENDBRANCH   1  17
TORSDOF 12
ENDMDL
