MODEL 1
REMARK VINA RESULT:    -6.656      0.000      0.000
REMARK INTER + INTRA:         -11.429
REMARK INTER:                  -9.769
REMARK INTRA:                  -1.659
REMARK UNBOUND:                -1.659
REMARK SMILES O=S(=O)(O)OC[C@@H]1O[C@H](O[C@H]2[C@@H]3OC[C@H]2O[C@@H](O)[C@H]3O)[C@@H](O)[C@H](O)[C@@H]1O
REMARK SMILES IDX 9 1 21 2 23 3 25 4 7 5 8 6 10 7 11 8 14 9 15 10 13 11 16 12
REMARK SMILES IDX 12 13 17 14 19 15 18 16 20 18 22 20 24 22 6 24 5 25 2 26
REMARK SMILES IDX 1 27 3 28 4 29 26 31
REMARK H PARENT 18 17 20 19 22 21 24 23 4 30 26 32
ROOT
ATOM      1  C   UNL     1      -1.796  12.222  -8.409  1.00  0.00    +0.282 C 
ATOM      2  C   UNL     1      -3.297  12.153  -8.069  1.00  0.00    +0.202 C 
ATOM      3  C   UNL     1      -3.861  13.563  -8.126  1.00  0.00    +0.179 C 
ATOM      4  C   UNL     1      -3.765  14.088  -9.562  1.00  0.00    +0.177 C 
ATOM      5  C   UNL     1      -2.479  13.626 -10.288  1.00  0.00    +0.180 C 
ATOM      6  O   UNL     1      -1.448  13.217  -9.369  1.00  0.00    -0.341 OA
ENDROOT
BRANCH   1   7
ATOM      7  O   UNL     1      -1.371  10.908  -8.781  1.00  0.00    -0.341 OA
BRANCH   7   8
ATOM      8  C   UNL     1      -0.457  10.335  -7.852  1.00  0.00    +0.184 C 
ATOM      9  C   UNL     1       1.315   8.909  -7.287  1.00  0.00    +0.195 C 
ATOM     10  C   UNL     1       0.774   9.700  -8.479  1.00  0.00    +0.179 C 
ATOM     11  O   UNL     1       0.152   8.495  -6.526  1.00  0.00    -0.370 OA
ATOM     12  O   UNL     1       0.399   8.868  -9.592  1.00  0.00    -0.342 OA
ATOM     13  C   UNL     1      -1.002   9.078  -7.183  1.00  0.00    +0.184 C 
ATOM     14  C   UNL     1      -0.479   7.786  -9.302  1.00  0.00    +0.279 C 
ATOM     15  C   UNL     1      -1.554   8.112  -8.241  1.00  0.00    +0.202 C 
BRANCH  14  16
ATOM     16  O   UNL     1       0.298   6.664  -8.892  1.00  0.00    -0.366 OA
ATOM     17  H   UNL     1       1.101   7.052  -8.500  1.00  0.00    +0.213 HD
ENDBRANCH  14  16
BRANCH  15  18
ATOM     18  O   UNL     1      -2.036   6.914  -7.618  1.00  0.00    -0.385 OA
ATOM     19  H   UNL     1      -2.998   6.918  -7.811  1.00  0.00    +0.211 HD
ENDBRANCH  15  18
ENDBRANCH   7   8
ENDBRANCH   1   7
BRANCH   2  20
ATOM     20  O   UNL     1      -3.515  11.611  -6.755  1.00  0.00    -0.385 OA
ATOM     21  H   UNL     1      -3.355  12.344  -6.130  1.00  0.00    +0.211 HD
ENDBRANCH   2  20
BRANCH   3  22
ATOM     22  O   UNL     1      -5.237  13.570  -7.711  1.00  0.00    -0.387 OA
ATOM     23  H   UNL     1      -5.204  13.694  -6.739  1.00  0.00    +0.211 HD
ENDBRANCH   3  22
BRANCH   5  24
ATOM     24  C   UNL     1      -2.697  12.589 -11.404  1.00  0.00    +0.220 C 
BRANCH  24  25
ATOM     25  O   UNL     1      -1.785  12.866 -12.464  1.00  0.00    -0.245 OA
BRANCH  25  26
ATOM     26  S   UNL     1      -0.511  11.875 -12.645  1.00  0.00    +0.397 S 
ATOM     27  O   UNL     1       0.713  12.588 -12.361  1.00  0.00    -0.169 OA
ATOM     28  O   UNL     1      -0.696  11.115 -13.860  1.00  0.00    -0.169 OA
BRANCH  26  29
ATOM     29  O   UNL     1      -0.744  10.812 -11.458  1.00  0.00    -0.264 OA
ATOM     30  H   UNL     1      -1.614  11.018 -11.058  1.00  0.00    +0.236 HD
ENDBRANCH  26  29
ENDBRANCH  25  26
ENDBRANCH  24  25
ENDBRANCH   5  24
BRANCH   4  31
ATOM     31  O   UNL     1      -4.941  13.701 -10.282  1.00  0.00    -0.387 OA
ATOM     32  H   UNL     1      -5.618  14.371 -10.036  1.00  0.00    +0.211 HD
ENDBRANCH   4  31
TORSDOF 11
ENDMDL
MODEL 2
REMARK VINA RESULT:    -6.430     12.137     14.552
REMARK INTER + INTRA:         -11.096
REMARK INTER:                  -9.882
REMARK INTRA:                  -1.214
REMARK UNBOUND:                -1.659
REMARK SMILES O=S(=O)(O)OC[C@@H]1O[C@H](O[C@H]2[C@@H]3OC[C@H]2O[C@@H](O)[C@H]3O)[C@@H](O)[C@H](O)[C@@H]1O
REMARK SMILES IDX 9 1 21 2 23 3 25 4 7 5 8 6 10 7 11 8 14 9 15 10 13 11 16 12
REMARK SMILES IDX 12 13 17 14 19 15 18 16 20 18 22 20 24 22 6 24 5 25 2 26
REMARK SMILES IDX 1 27 3 28 4 29 26 31
REMARK H PARENT 18 17 20 19 22 21 24 23 4 30 26 32
ROOT
ATOM      1  C   UNL     1      11.173   4.354 -13.473  1.00  0.00    +0.282 C 
ATOM      2  C   UNL     1      10.470   5.179 -14.569  1.00  0.00    +0.202 C 
ATOM      3  C   UNL     1      10.793   4.553 -15.914  1.00  0.00    +0.179 C 
ATOM      4  C   UNL     1      10.188   3.147 -15.976  1.00  0.00    +0.177 C 
ATOM      5  C   UNL     1      10.256   2.402 -14.622  1.00  0.00    +0.180 C 
ATOM      6  O   UNL     1      11.252   2.955 -13.741  1.00  0.00    -0.341 OA
ENDROOT
BRANCH   1   7
ATOM      7  O   UNL     1      10.539   4.653 -12.226  1.00  0.00    -0.341 OA
BRANCH   7   8
ATOM      8  C   UNL     1      11.452   5.114 -11.235  1.00  0.00    +0.184 C 
ATOM      9  C   UNL     1      12.008   5.724  -9.041  1.00  0.00    +0.195 C 
ATOM     10  C   UNL     1      11.039   4.817  -9.802  1.00  0.00    +0.179 C 
ATOM     11  O   UNL     1      12.216   6.881  -9.891  1.00  0.00    -0.370 OA
ATOM     12  O   UNL     1       9.657   5.159  -9.596  1.00  0.00    -0.342 OA
ATOM     13  C   UNL     1      11.480   6.633 -11.117  1.00  0.00    +0.184 C 
ATOM     14  C   UNL     1       9.305   6.521  -9.817  1.00  0.00    +0.279 C 
ATOM     15  C   UNL     1      10.052   7.181 -10.997  1.00  0.00    +0.202 C 
BRANCH  14  16
ATOM     16  O   UNL     1       9.531   7.252  -8.615  1.00  0.00    -0.366 OA
ATOM     17  H   UNL     1       8.689   7.711  -8.446  1.00  0.00    +0.213 HD
ENDBRANCH  14  16
BRANCH  15  18
ATOM     18  O   UNL     1      10.077   8.607 -10.851  1.00  0.00    -0.385 OA
ATOM     19  H   UNL     1       9.287   8.910 -11.348  1.00  0.00    +0.211 HD
ENDBRANCH  15  18
ENDBRANCH   7   8
ENDBRANCH   1   7
BRANCH   2  20
ATOM     20  O   UNL     1      10.916   6.546 -14.564  1.00  0.00    -0.385 OA
ATOM     21  H   UNL     1      10.152   7.079 -14.269  1.00  0.00    +0.211 HD
ENDBRANCH   2  20
BRANCH   3  22
ATOM     22  O   UNL     1      10.250   5.349 -16.981  1.00  0.00    -0.387 OA
ATOM     23  H   UNL     1      10.687   5.013 -17.792  1.00  0.00    +0.211 HD
ENDBRANCH   3  22
BRANCH   5  24
ATOM     24  C   UNL     1       8.902   2.215 -13.912  1.00  0.00    +0.220 C 
BRANCH  24  25
ATOM     25  O   UNL     1       8.102   1.328 -14.690  1.00  0.00    -0.245 OA
BRANCH  25  26
ATOM     26  S   UNL     1       6.492   1.531 -14.653  1.00  0.00    +0.397 S 
ATOM     27  O   UNL     1       6.147   2.574 -13.713  1.00  0.00    -0.169 OA
ATOM     28  O   UNL     1       5.871   0.226 -14.618  1.00  0.00    -0.169 OA
BRANCH  26  29
ATOM     29  O   UNL     1       6.192   2.088 -16.133  1.00  0.00    -0.264 OA
ATOM     30  H   UNL     1       5.484   2.759 -16.047  1.00  0.00    +0.236 HD
ENDBRANCH  26  29
ENDBRANCH  25  26
ENDBRANCH  24  25
ENDBRANCH   5  24
BRANCH   4  31
ATOM     31  O   UNL     1       8.843   3.236 -16.459  1.00  0.00    -0.387 OA
ATOM     32  H   UNL     1       8.750   4.163 -16.774  1.00  0.00    +0.211 HD
ENDBRANCH   4  31
TORSDOF 11
ENDMDL
MODEL 3
REMARK VINA RESULT:    -6.132     12.318     15.213
REMARK INTER + INTRA:         -10.660
REMARK INTER:                  -9.619
REMARK INTRA:                  -1.041
REMARK UNBOUND:                -1.659
REMARK SMILES O=S(=O)(O)OC[C@@H]1O[C@H](O[C@H]2[C@@H]3OC[C@H]2O[C@@H](O)[C@H]3O)[C@@H](O)[C@H](O)[C@@H]1O
REMARK SMILES IDX 9 1 21 2 23 3 25 4 7 5 8 6 10 7 11 8 14 9 15 10 13 11 16 12
REMARK SMILES IDX 12 13 17 14 19 15 18 16 20 18 22 20 24 22 6 24 5 25 2 26
REMARK SMILES IDX 1 27 3 28 4 29 26 31
REMARK H PARENT 18 17 20 19 22 21 24 23 4 30 26 32
ROOT
ATOM      1  C   UNL     1      10.067   4.171 -12.302  1.00  0.00    +0.282 C 
ATOM      2  C   UNL     1       9.449   3.901 -10.917  1.00  0.00    +0.202 C 
ATOM      3  C   UNL     1       8.105   4.606 -10.852  1.00  0.00    +0.179 C 
ATOM      4  C   UNL     1       7.156   3.980 -11.878  1.00  0.00    +0.177 C 
ATOM      5  C   UNL     1       7.871   3.570 -13.188  1.00  0.00    +0.180 C 
ATOM      6  O   UNL     1       9.123   4.258 -13.368  1.00  0.00    -0.341 OA
ENDROOT
BRANCH   1   7
ATOM      7  O   UNL     1      11.081   3.188 -12.529  1.00  0.00    -0.341 OA
BRANCH   7   8
ATOM      8  C   UNL     1      12.253   3.727 -13.132  1.00  0.00    +0.184 C 
ATOM      9  C   UNL     1      13.793   3.906 -14.890  1.00  0.00    +0.195 C 
ATOM     10  C   UNL     1      12.323   3.565 -14.642  1.00  0.00    +0.179 C 
ATOM     11  O   UNL     1      14.510   3.442 -13.716  1.00  0.00    -0.370 OA
ATOM     12  O   UNL     1      11.978   2.220 -15.020  1.00  0.00    -0.342 OA
ATOM     13  C   UNL     1      13.511   2.934 -12.795  1.00  0.00    +0.184 C 
ATOM     14  C   UNL     1      12.801   1.186 -14.489  1.00  0.00    +0.279 C 
ATOM     15  C   UNL     1      13.275   1.438 -13.041  1.00  0.00    +0.202 C 
BRANCH  14  16
ATOM     16  O   UNL     1      13.920   1.004 -15.353  1.00  0.00    -0.366 OA
ATOM     17  H   UNL     1      13.896   1.773 -15.950  1.00  0.00    +0.213 HD
ENDBRANCH  14  16
BRANCH  15  18
ATOM     18  O   UNL     1      14.467   0.694 -12.758  1.00  0.00    -0.385 OA
ATOM     19  H   UNL     1      14.813   0.455 -13.644  1.00  0.00    +0.211 HD
ENDBRANCH  15  18
ENDBRANCH   7   8
ENDBRANCH   1   7
BRANCH   2  20
ATOM     20  O   UNL     1      10.292   4.394  -9.861  1.00  0.00    -0.385 OA
ATOM     21  H   UNL     1       9.768   5.073  -9.391  1.00  0.00    +0.211 HD
ENDBRANCH   2  20
BRANCH   3  22
ATOM     22  O   UNL     1       7.534   4.476  -9.539  1.00  0.00    -0.387 OA
ATOM     23  H   UNL     1       6.841   5.169  -9.498  1.00  0.00    +0.211 HD
ENDBRANCH   3  22
BRANCH   5  24
ATOM     24  C   UNL     1       8.014   2.052 -13.405  1.00  0.00    +0.220 C 
BRANCH  24  25
ATOM     25  O   UNL     1       6.730   1.516 -13.717  1.00  0.00    -0.245 OA
BRANCH  25  26
ATOM     26  S   UNL     1       6.468   1.017 -15.239  1.00  0.00    +0.397 S 
ATOM     27  O   UNL     1       5.248   0.244 -15.302  1.00  0.00    -0.169 OA
ATOM     28  O   UNL     1       7.717   0.529 -15.779  1.00  0.00    -0.169 OA
BRANCH  26  29
ATOM     29  O   UNL     1       6.205   2.407 -16.007  1.00  0.00    -0.264 OA
ATOM     30  H   UNL     1       6.940   3.008 -15.768  1.00  0.00    +0.236 HD
ENDBRANCH  26  29
ENDBRANCH  25  26
ENDBRANCH  24  25
ENDBRANCH   5  24
BRANCH   4  31
ATOM     31  O   UNL     1       6.484   2.867 -11.278  1.00  0.00    -0.387 OA
ATOM     32  H   UNL     1       7.185   2.386 -10.784  1.00  0.00    +0.211 HD
ENDBRANCH   4  31
TORSDOF 11
ENDMDL
MODEL 4
REMARK VINA RESULT:    -6.073     14.793     17.248
REMARK INTER + INTRA:         -10.573
REMARK INTER:                  -9.323
REMARK INTRA:                  -1.251
REMARK UNBOUND:                -1.659
REMARK SMILES O=S(=O)(O)OC[C@@H]1O[C@H](O[C@H]2[C@@H]3OC[C@H]2O[C@@H](O)[C@H]3O)[C@@H](O)[C@H](O)[C@@H]1O
REMARK SMILES IDX 9 1 21 2 23 3 25 4 7 5 8 6 10 7 11 8 14 9 15 10 13 11 16 12
REMARK SMILES IDX 12 13 17 14 19 15 18 16 20 18 22 20 24 22 6 24 5 25 2 26
REMARK SMILES IDX 1 27 3 28 4 29 26 31
REMARK H PARENT 18 17 20 19 22 21 24 23 4 30 26 32
ROOT
ATOM      1  C   UNL     1       3.553  23.113  -1.186  1.00  0.00    +0.282 C 
ATOM      2  C   UNL     1       3.728  21.721  -0.550  1.00  0.00    +0.202 C 
ATOM      3  C   UNL     1       5.019  21.724   0.251  1.00  0.00    +0.179 C 
ATOM      4  C   UNL     1       4.893  22.717   1.410  1.00  0.00    +0.177 C 
ATOM      5  C   UNL     1       4.091  23.985   1.032  1.00  0.00    +0.180 C 
ATOM      6  O   UNL     1       4.035  24.195  -0.392  1.00  0.00    -0.341 OA
ENDROOT
BRANCH   1   7
ATOM      7  O   UNL     1       2.179  23.256  -1.556  1.00  0.00    -0.341 OA
BRANCH   7   8
ATOM      8  C   UNL     1       1.864  24.562  -2.027  1.00  0.00    +0.184 C 
ATOM      9  C   UNL     1       0.376  26.168  -2.864  1.00  0.00    +0.195 C 
ATOM     10  C   UNL     1       0.383  24.909  -1.997  1.00  0.00    +0.179 C 
ATOM     11  O   UNL     1       1.424  25.977  -3.849  1.00  0.00    -0.370 OA
ATOM     12  O   UNL     1      -0.396  23.832  -2.549  1.00  0.00    -0.342 OA
ATOM     13  C   UNL     1       2.067  24.716  -3.530  1.00  0.00    +0.184 C 
ATOM     14  C   UNL     1      -0.117  23.480  -3.900  1.00  0.00    +0.279 C 
ATOM     15  C   UNL     1       1.379  23.566  -4.277  1.00  0.00    +0.202 C 
BRANCH  14  16
ATOM     16  O   UNL     1      -0.894  24.311  -4.759  1.00  0.00    -0.366 OA
ATOM     17  H   UNL     1      -0.678  25.219  -4.481  1.00  0.00    +0.213 HD
ENDBRANCH  14  16
BRANCH  15  18
ATOM     18  O   UNL     1       1.539  23.727  -5.693  1.00  0.00    -0.385 OA
ATOM     19  H   UNL     1       0.757  23.270  -6.073  1.00  0.00    +0.211 HD
ENDBRANCH  15  18
ENDBRANCH   7   8
ENDBRANCH   1   7
BRANCH   2  20
ATOM     20  O   UNL     1       3.795  20.690  -1.551  1.00  0.00    -0.385 OA
ATOM     21  H   UNL     1       3.176  19.991  -1.261  1.00  0.00    +0.211 HD
ENDBRANCH   2  20
BRANCH   3  22
ATOM     22  O   UNL     1       5.286  20.413   0.777  1.00  0.00    -0.387 OA
ATOM     23  H   UNL     1       4.794  20.379   1.625  1.00  0.00    +0.211 HD
ENDBRANCH   3  22
BRANCH   5  24
ATOM     24  C   UNL     1       2.699  24.094   1.683  1.00  0.00    +0.220 C 
BRANCH  24  25
ATOM     25  O   UNL     1       2.825  24.828   2.898  1.00  0.00    -0.245 OA
BRANCH  25  26
ATOM     26  S   UNL     1       1.893  24.383   4.151  1.00  0.00    +0.397 S 
ATOM     27  O   UNL     1       0.519  24.250   3.721  1.00  0.00    -0.169 OA
ATOM     28  O   UNL     1       2.267  25.176   5.300  1.00  0.00    -0.169 OA
BRANCH  26  29
ATOM     29  O   UNL     1       2.449  22.907   4.473  1.00  0.00    -0.264 OA
ATOM     30  H   UNL     1       1.865  22.274   4.007  1.00  0.00    +0.236 HD
ENDBRANCH  26  29
ENDBRANCH  25  26
ENDBRANCH  24  25
ENDBRANCH   5  24
BRANCH   4  31
ATOM     31  O   UNL     1       4.318  22.050   2.539  1.00  0.00    -0.387 OA
ATOM     32  H   UNL     1       5.003  21.404   2.824  1.00  0.00    +0.211 HD
ENDBRANCH   4  31
TORSDOF 11
ENDMDL
MODEL 5
REMARK VINA RESULT:    -5.951      1.344      2.170
REMARK INTER + INTRA:         -10.394
REMARK INTER:                  -9.148
REMARK INTRA:                  -1.245
REMARK UNBOUND:                -1.659
REMARK SMILES O=S(=O)(O)OC[C@@H]1O[C@H](O[C@H]2[C@@H]3OC[C@H]2O[C@@H](O)[C@H]3O)[C@@H](O)[C@H](O)[C@@H]1O
REMARK SMILES IDX 9 1 21 2 23 3 25 4 7 5 8 6 10 7 11 8 14 9 15 10 13 11 16 12
REMARK SMILES IDX 12 13 17 14 19 15 18 16 20 18 22 20 24 22 6 24 5 25 2 26
REMARK SMILES IDX 1 27 3 28 4 29 26 31
REMARK H PARENT 18 17 20 19 22 21 24 23 4 30 26 32
ROOT
ATOM      1  C   UNL     1      -1.292  12.169  -9.326  1.00  0.00    +0.282 C 
ATOM      2  C   UNL     1      -2.677  12.661  -9.787  1.00  0.00    +0.202 C 
ATOM      3  C   UNL     1      -2.498  13.999 -10.483  1.00  0.00    +0.179 C 
ATOM      4  C   UNL     1      -1.665  13.801 -11.753  1.00  0.00    +0.177 C 
ATOM      5  C   UNL     1      -0.548  12.743 -11.582  1.00  0.00    +0.180 C 
ATOM      6  O   UNL     1      -0.217  12.514 -10.199  1.00  0.00    -0.341 OA
ENDROOT
BRANCH   1   7
ATOM      7  O   UNL     1      -1.386  10.764  -9.079  1.00  0.00    -0.341 OA
BRANCH   7   8
ATOM      8  C   UNL     1      -0.494  10.317  -8.063  1.00  0.00    +0.184 C 
ATOM      9  C   UNL     1       1.290   9.007  -7.291  1.00  0.00    +0.195 C 
ATOM     10  C   UNL     1       0.774   9.652  -8.578  1.00  0.00    +0.179 C 
ATOM     11  O   UNL     1       0.109   8.645  -6.528  1.00  0.00    -0.370 OA
ATOM     12  O   UNL     1       0.457   8.697  -9.606  1.00  0.00    -0.342 OA
ATOM     13  C   UNL     1      -1.034   9.125  -7.282  1.00  0.00    +0.184 C 
ATOM     14  C   UNL     1      -0.406   7.629  -9.231  1.00  0.00    +0.279 C 
ATOM     15  C   UNL     1      -1.525   8.038  -8.248  1.00  0.00    +0.202 C 
BRANCH  14  16
ATOM     16  O   UNL     1       0.381   6.577  -8.678  1.00  0.00    -0.366 OA
ATOM     17  H   UNL     1       0.079   5.776  -9.141  1.00  0.00    +0.213 HD
ENDBRANCH  14  16
BRANCH  15  18
ATOM     18  O   UNL     1      -2.002   6.901  -7.516  1.00  0.00    -0.385 OA
ATOM     19  H   UNL     1      -2.968   6.898  -7.687  1.00  0.00    +0.211 HD
ENDBRANCH  15  18
ENDBRANCH   7   8
ENDBRANCH   1   7
BRANCH   2  20
ATOM     20  O   UNL     1      -3.574  12.824  -8.675  1.00  0.00    -0.385 OA
ATOM     21  H   UNL     1      -4.451  13.017  -9.060  1.00  0.00    +0.211 HD
ENDBRANCH   2  20
BRANCH   3  22
ATOM     22  O   UNL     1      -3.775  14.555 -10.838  1.00  0.00    -0.387 OA
ATOM     23  H   UNL     1      -4.432  13.936 -10.456  1.00  0.00    +0.211 HD
ENDBRANCH   3  22
BRANCH   5  24
ATOM     24  C   UNL     1      -0.777  11.425 -12.343  1.00  0.00    +0.220 C 
BRANCH  24  25
ATOM     25  O   UNL     1      -0.292  11.581 -13.675  1.00  0.00    -0.245 OA
BRANCH  25  26
ATOM     26  S   UNL     1      -1.169  10.939 -14.880  1.00  0.00    +0.397 S 
ATOM     27  O   UNL     1      -2.342  11.749 -15.123  1.00  0.00    -0.169 OA
ATOM     28  O   UNL     1      -1.249   9.511 -14.673  1.00  0.00    -0.169 OA
BRANCH  26  29
ATOM     29  O   UNL     1      -0.184  11.116 -16.141  1.00  0.00    -0.264 OA
ATOM     30  H   UNL     1       0.707  10.836 -15.848  1.00  0.00    +0.236 HD
ENDBRANCH  26  29
ENDBRANCH  25  26
ENDBRANCH  24  25
ENDBRANCH   5  24
BRANCH   4  31
ATOM     31  O   UNL     1      -2.536  13.472 -12.840  1.00  0.00    -0.387 OA
ATOM     32  H   UNL     1      -2.186  12.624 -13.195  1.00  0.00    +0.211 HD
ENDBRANCH   4  31
TORSDOF 11
ENDMDL
MODEL 6
REMARK VINA RESULT:    -5.850     11.855     14.598
REMARK INTER + INTRA:         -10.245
REMARK INTER:                  -9.340
REMARK INTRA:                  -0.904
REMARK UNBOUND:                -1.659
REMARK SMILES O=S(=O)(O)OC[C@@H]1O[C@H](O[C@H]2[C@@H]3OC[C@H]2O[C@@H](O)[C@H]3O)[C@@H](O)[C@H](O)[C@@H]1O
REMARK SMILES IDX 9 1 21 2 23 3 25 4 7 5 8 6 10 7 11 8 14 9 15 10 13 11 16 12
REMARK SMILES IDX 12 13 17 14 19 15 18 16 20 18 22 20 24 22 6 24 5 25 2 26
REMARK SMILES IDX 1 27 3 28 4 29 26 31
REMARK H PARENT 18 17 20 19 22 21 24 23 4 30 26 32
ROOT
ATOM      1  C   UNL     1       8.363   4.060 -13.181  1.00  0.00    +0.282 C 
ATOM      2  C   UNL     1       7.388   2.870 -13.085  1.00  0.00    +0.202 C 
ATOM      3  C   UNL     1       6.777   2.645 -14.457  1.00  0.00    +0.179 C 
ATOM      4  C   UNL     1       7.876   2.225 -15.437  1.00  0.00    +0.177 C 
ATOM      5  C   UNL     1       9.220   2.949 -15.182  1.00  0.00    +0.180 C 
ATOM      6  O   UNL     1       9.054   4.163 -14.425  1.00  0.00    -0.341 OA
ENDROOT
BRANCH   1   7
ATOM      7  O   UNL     1       9.241   3.999 -12.054  1.00  0.00    -0.341 OA
BRANCH   7   8
ATOM      8  C   UNL     1      10.317   4.927 -12.137  1.00  0.00    +0.184 C 
ATOM      9  C   UNL     1      12.071   6.168 -11.200  1.00  0.00    +0.195 C 
ATOM     10  C   UNL     1      11.304   4.863 -10.982  1.00  0.00    +0.179 C 
ATOM     11  O   UNL     1      11.111   7.104 -11.753  1.00  0.00    -0.370 OA
ATOM     12  O   UNL     1      10.604   4.817  -9.726  1.00  0.00    -0.342 OA
ATOM     13  C   UNL     1       9.871   6.370 -11.930  1.00  0.00    +0.184 C 
ATOM     14  C   UNL     1       9.754   5.922  -9.437  1.00  0.00    +0.279 C 
ATOM     15  C   UNL     1       9.006   6.481 -10.668  1.00  0.00    +0.202 C 
BRANCH  14  16
ATOM     16  O   UNL     1      10.529   6.946  -8.819  1.00  0.00    -0.366 OA
ATOM     17  H   UNL     1      10.152   7.777  -9.161  1.00  0.00    +0.213 HD
ENDBRANCH  14  16
BRANCH  15  18
ATOM     18  O   UNL     1       8.614   7.843 -10.451  1.00  0.00    -0.385 OA
ATOM     19  H   UNL     1       8.665   7.951  -9.477  1.00  0.00    +0.211 HD
ENDBRANCH  15  18
ENDBRANCH   7   8
ENDBRANCH   1   7
BRANCH   2  20
ATOM     20  O   UNL     1       6.338   3.127 -12.136  1.00  0.00    -0.385 OA
ATOM     21  H   UNL     1       6.279   2.329 -11.575  1.00  0.00    +0.211 HD
ENDBRANCH   2  20
BRANCH   3  22
ATOM     22  O   UNL     1       5.777   1.614 -14.398  1.00  0.00    -0.387 OA
ATOM     23  H   UNL     1       6.039   0.971 -15.090  1.00  0.00    +0.211 HD
ENDBRANCH   3  22
BRANCH   5  24
ATOM     24  C   UNL     1      10.339   2.062 -14.606  1.00  0.00    +0.220 C 
BRANCH  24  25
ATOM     25  O   UNL     1      11.596   2.648 -14.937  1.00  0.00    -0.245 OA
BRANCH  25  26
ATOM     26  S   UNL     1      12.929   2.007 -14.268  1.00  0.00    +0.397 S 
ATOM     27  O   UNL     1      14.064   2.870 -14.505  1.00  0.00    -0.169 OA
ATOM     28  O   UNL     1      12.958   0.595 -14.577  1.00  0.00    -0.169 OA
BRANCH  26  29
ATOM     29  O   UNL     1      12.581   2.076 -12.698  1.00  0.00    -0.264 OA
ATOM     30  H   UNL     1      11.783   1.528 -12.559  1.00  0.00    +0.236 HD
ENDBRANCH  26  29
ENDBRANCH  25  26
ENDBRANCH  24  25
ENDBRANCH   5  24
BRANCH   4  31
ATOM     31  O   UNL     1       8.030   0.802 -15.388  1.00  0.00    -0.387 OA
ATOM     32  H   UNL     1       7.551   0.470 -16.181  1.00  0.00    +0.211 HD
ENDBRANCH   4  31
TORSDOF 11
ENDMDL
MODEL 7
REMARK VINA RESULT:    -5.819      2.417      6.238
REMARK INTER + INTRA:         -10.200
REMARK INTER:                  -9.244
REMARK INTRA:                  -0.956
REMARK UNBOUND:                -1.659
REMARK SMILES O=S(=O)(O)OC[C@@H]1O[C@H](O[C@H]2[C@@H]3OC[C@H]2O[C@@H](O)[C@H]3O)[C@@H](O)[C@H](O)[C@@H]1O
REMARK SMILES IDX 9 1 21 2 23 3 25 4 7 5 8 6 10 7 11 8 14 9 15 10 13 11 16 12
REMARK SMILES IDX 12 13 17 14 19 15 18 16 20 18 22 20 24 22 6 24 5 25 2 26
REMARK SMILES IDX 1 27 3 28 4 29 26 31
REMARK H PARENT 18 17 20 19 22 21 24 23 4 30 26 32
ROOT
ATOM      1  C   UNL     1       0.150  11.928  -9.809  1.00  0.00    +0.282 C 
ATOM      2  C   UNL     1       0.632  10.554  -9.302  1.00  0.00    +0.202 C 
ATOM      3  C   UNL     1       1.312  10.757  -7.959  1.00  0.00    +0.179 C 
ATOM      4  C   UNL     1       0.283  11.257  -6.941  1.00  0.00    +0.177 C 
ATOM      5  C   UNL     1      -0.751  12.229  -7.558  1.00  0.00    +0.180 C 
ATOM      6  O   UNL     1      -0.283  12.821  -8.785  1.00  0.00    -0.341 OA
ENDROOT
BRANCH   1   7
ATOM      7  O   UNL     1      -0.842  11.700 -10.813  1.00  0.00    -0.341 OA
BRANCH   7   8
ATOM      8  C   UNL     1      -1.165  12.873 -11.552  1.00  0.00    +0.184 C 
ATOM      9  C   UNL     1      -2.035  13.977 -13.428  1.00  0.00    +0.195 C 
ATOM     10  C   UNL     1      -2.198  12.671 -12.649  1.00  0.00    +0.179 C 
ATOM     11  O   UNL     1      -0.633  14.333 -13.314  1.00  0.00    -0.370 OA
ATOM     12  O   UNL     1      -1.884  11.501 -13.425  1.00  0.00    -0.342 OA
ATOM     13  C   UNL     1      -0.023  13.342 -12.447  1.00  0.00    +0.184 C 
ATOM     14  C   UNL     1      -0.624  11.504 -14.088  1.00  0.00    +0.279 C 
ATOM     15  C   UNL     1       0.512  12.169 -13.280  1.00  0.00    +0.202 C 
BRANCH  14  16
ATOM     16  O   UNL     1      -0.775  12.144 -15.353  1.00  0.00    -0.366 OA
ATOM     17  H   UNL     1      -0.425  11.500 -15.995  1.00  0.00    +0.213 HD
ENDBRANCH  14  16
BRANCH  15  18
ATOM     18  O   UNL     1       1.563  12.613 -14.148  1.00  0.00    -0.385 OA
ATOM     19  H   UNL     1       2.060  13.262 -13.605  1.00  0.00    +0.211 HD
ENDBRANCH  15  18
ENDBRANCH   7   8
ENDBRANCH   1   7
BRANCH   2  20
ATOM     20  O   UNL     1       1.565   9.955 -10.218  1.00  0.00    -0.385 OA
ATOM     21  H   UNL     1       1.082   9.228 -10.658  1.00  0.00    +0.211 HD
ENDBRANCH   2  20
BRANCH   3  22
ATOM     22  O   UNL     1       1.878   9.520  -7.492  1.00  0.00    -0.387 OA
ATOM     23  H   UNL     1       1.361   8.822  -7.945  1.00  0.00    +0.211 HD
ENDBRANCH   3  22
BRANCH   5  24
ATOM     24  C   UNL     1      -2.175  11.662  -7.701  1.00  0.00    +0.220 C 
BRANCH  24  25
ATOM     25  O   UNL     1      -3.093  12.596  -7.137  1.00  0.00    -0.245 OA
BRANCH  25  26
ATOM     26  S   UNL     1      -4.253  13.194  -8.102  1.00  0.00    +0.397 S 
ATOM     27  O   UNL     1      -5.556  12.862  -7.570  1.00  0.00    -0.169 OA
ATOM     28  O   UNL     1      -3.889  12.920  -9.473  1.00  0.00    -0.169 OA
BRANCH  26  29
ATOM     29  O   UNL     1      -4.045  14.781  -7.931  1.00  0.00    -0.264 OA
ATOM     30  H   UNL     1      -4.451  15.031  -7.076  1.00  0.00    +0.236 HD
ENDBRANCH  26  29
ENDBRANCH  25  26
ENDBRANCH  24  25
ENDBRANCH   5  24
BRANCH   4  31
ATOM     31  O   UNL     1      -0.356  10.131  -6.329  1.00  0.00    -0.387 OA
ATOM     32  H   UNL     1       0.149   9.350  -6.650  1.00  0.00    +0.211 HD
ENDBRANCH   4  31
TORSDOF 11
ENDMDL
MODEL 8
REMARK VINA RESULT:    -5.664     12.244     14.799
REMARK INTER + INTRA:          -9.972
REMARK INTER:                  -8.956
REMARK INTRA:                  -1.016
REMARK UNBOUND:                -1.659
REMARK SMILES O=S(=O)(O)OC[C@@H]1O[C@H](O[C@H]2[C@@H]3OC[C@H]2O[C@@H](O)[C@H]3O)[C@@H](O)[C@H](O)[C@@H]1O
REMARK SMILES IDX 9 1 21 2 23 3 25 4 7 5 8 6 10 7 11 8 14 9 15 10 13 11 16 12
REMARK SMILES IDX 12 13 17 14 19 15 18 16 20 18 22 20 24 22 6 24 5 25 2 26
REMARK SMILES IDX 1 27 3 28 4 29 26 31
REMARK H PARENT 18 17 20 19 22 21 24 23 4 30 26 32
ROOT
ATOM      1  C   UNL     1       9.997   3.979 -12.264  1.00  0.00    +0.282 C 
ATOM      2  C   UNL     1       8.457   3.970 -12.196  1.00  0.00    +0.202 C 
ATOM      3  C   UNL     1       8.041   3.132 -10.999  1.00  0.00    +0.179 C 
ATOM      4  C   UNL     1       8.527   3.808  -9.714  1.00  0.00    +0.177 C 
ATOM      5  C   UNL     1       9.910   4.483  -9.875  1.00  0.00    +0.180 C 
ATOM      6  O   UNL     1      10.649   3.960 -10.995  1.00  0.00    -0.341 OA
ENDROOT
BRANCH   1   7
ATOM      7  O   UNL     1      10.392   5.083 -13.083  1.00  0.00    -0.341 OA
BRANCH   7   8
ATOM      8  C   UNL     1      11.651   4.880 -13.718  1.00  0.00    +0.184 C 
ATOM      9  C   UNL     1      13.530   5.635 -14.898  1.00  0.00    +0.195 C 
ATOM     10  C   UNL     1      12.473   6.144 -13.916  1.00  0.00    +0.179 C 
ATOM     11  O   UNL     1      12.865   4.637 -15.714  1.00  0.00    -0.370 OA
ATOM     12  O   UNL     1      11.655   7.197 -14.456  1.00  0.00    -0.342 OA
ATOM     13  C   UNL     1      11.518   4.504 -15.189  1.00  0.00    +0.184 C 
ATOM     14  C   UNL     1      11.046   6.939 -15.717  1.00  0.00    +0.279 C 
ATOM     15  C   UNL     1      10.573   5.480 -15.903  1.00  0.00    +0.202 C 
BRANCH  14  16
ATOM     16  O   UNL     1      11.962   7.299 -16.748  1.00  0.00    -0.366 OA
ATOM     17  H   UNL     1      11.742   6.705 -17.488  1.00  0.00    +0.213 HD
ENDBRANCH  14  16
BRANCH  15  18
ATOM     18  O   UNL     1      10.474   5.150 -17.294  1.00  0.00    -0.385 OA
ATOM     19  H   UNL     1       9.618   4.675 -17.364  1.00  0.00    +0.211 HD
ENDBRANCH  15  18
ENDBRANCH   7   8
ENDBRANCH   1   7
BRANCH   2  20
ATOM     20  O   UNL     1       7.882   3.410 -13.388  1.00  0.00    -0.385 OA
ATOM     21  H   UNL     1       7.685   2.475 -13.181  1.00  0.00    +0.211 HD
ENDBRANCH   2  20
BRANCH   3  22
ATOM     22  O   UNL     1       6.610   3.001 -10.953  1.00  0.00    -0.387 OA
ATOM     23  H   UNL     1       6.375   2.531 -11.780  1.00  0.00    +0.211 HD
ENDBRANCH   3  22
BRANCH   5  24
ATOM     24  C   UNL     1       9.889   6.022  -9.870  1.00  0.00    +0.220 C 
BRANCH  24  25
ATOM     25  O   UNL     1      10.817   6.484  -8.891  1.00  0.00    -0.245 OA
BRANCH  25  26
ATOM     26  S   UNL     1      12.335   6.794  -9.373  1.00  0.00    +0.397 S 
ATOM     27  O   UNL     1      12.322   7.425 -10.673  1.00  0.00    -0.169 OA
ATOM     28  O   UNL     1      13.147   5.632  -9.090  1.00  0.00    -0.169 OA
BRANCH  26  29
ATOM     29  O   UNL     1      12.809   7.896  -8.300  1.00  0.00    -0.264 OA
ATOM     30  H   UNL     1      13.785   7.944  -8.352  1.00  0.00    +0.236 HD
ENDBRANCH  26  29
ENDBRANCH  25  26
ENDBRANCH  24  25
ENDBRANCH   5  24
BRANCH   4  31
ATOM     31  O   UNL     1       7.536   4.742  -9.272  1.00  0.00    -0.387 OA
ATOM     32  H   UNL     1       7.194   5.154 -10.096  1.00  0.00    +0.211 HD
ENDBRANCH   4  31
TORSDOF 11
ENDMDL
MODEL 9
REMARK VINA RESULT:    -5.652     12.266     15.076
REMARK INTER + INTRA:          -9.955
REMARK INTER:                  -8.720
REMARK INTRA:                  -1.235
REMARK UNBOUND:                -1.659
REMARK SMILES O=S(=O)(O)OC[C@@H]1O[C@H](O[C@H]2[C@@H]3OC[C@H]2O[C@@H](O)[C@H]3O)[C@@H](O)[C@H](O)[C@@H]1O
REMARK SMILES IDX 9 1 21 2 23 3 25 4 7 5 8 6 10 7 11 8 14 9 15 10 13 11 16 12
REMARK SMILES IDX 12 13 17 14 19 15 18 16 20 18 22 20 24 22 6 24 5 25 2 26
REMARK SMILES IDX 1 27 3 28 4 29 26 31
REMARK H PARENT 18 17 20 19 22 21 24 23 4 30 26 32
ROOT
ATOM      1  C   UNL     1       9.587   2.597 -14.048  1.00  0.00    +0.282 C 
ATOM      2  C   UNL     1       8.478   3.035 -15.024  1.00  0.00    +0.202 C 
ATOM      3  C   UNL     1       7.535   1.861 -15.228  1.00  0.00    +0.179 C 
ATOM      4  C   UNL     1       6.841   1.533 -13.903  1.00  0.00    +0.177 C 
ATOM      5  C   UNL     1       7.768   1.713 -12.676  1.00  0.00    +0.180 C 
ATOM      6  O   UNL     1       9.163   1.687 -13.035  1.00  0.00    -0.341 OA
ENDROOT
BRANCH   1   7
ATOM      7  O   UNL     1      10.198   3.778 -13.522  1.00  0.00    -0.341 OA
BRANCH   7   8
ATOM      8  C   UNL     1      11.553   3.576 -13.133  1.00  0.00    +0.184 C 
ATOM      9  C   UNL     1      13.603   4.319 -12.273  1.00  0.00    +0.195 C 
ATOM     10  C   UNL     1      12.109   4.633 -12.190  1.00  0.00    +0.179 C 
ATOM     11  O   UNL     1      13.834   3.845 -13.625  1.00  0.00    -0.370 OA
ATOM     12  O   UNL     1      11.775   5.951 -12.661  1.00  0.00    -0.342 OA
ATOM     13  C   UNL     1      12.537   3.800 -14.275  1.00  0.00    +0.184 C 
ATOM     14  C   UNL     1      12.263   6.301 -13.952  1.00  0.00    +0.279 C 
ATOM     15  C   UNL     1      12.247   5.138 -14.969  1.00  0.00    +0.202 C 
BRANCH  14  16
ATOM     16  O   UNL     1      13.582   6.823 -13.817  1.00  0.00    -0.366 OA
ATOM     17  H   UNL     1      14.151   6.169 -14.260  1.00  0.00    +0.213 HD
ENDBRANCH  14  16
BRANCH  15  18
ATOM     18  O   UNL     1      13.192   5.368 -16.022  1.00  0.00    -0.385 OA
ATOM     19  H   UNL     1      12.705   5.934 -16.658  1.00  0.00    +0.211 HD
ENDBRANCH  15  18
ENDBRANCH   7   8
ENDBRANCH   1   7
BRANCH   2  20
ATOM     20  O   UNL     1       9.022   3.429 -16.295  1.00  0.00    -0.385 OA
ATOM     21  H   UNL     1       8.817   2.702 -16.915  1.00  0.00    +0.211 HD
ENDBRANCH   2  20
BRANCH   3  22
ATOM     22  O   UNL     1       6.542   2.181 -16.216  1.00  0.00    -0.387 OA
ATOM     23  H   UNL     1       6.559   3.159 -16.280  1.00  0.00    +0.211 HD
ENDBRANCH   3  22
BRANCH   5  24
ATOM     24  C   UNL     1       7.430   2.914 -11.774  1.00  0.00    +0.220 C 
BRANCH  24  25
ATOM     25  O   UNL     1       8.362   2.946 -10.696  1.00  0.00    -0.245 OA
BRANCH  25  26
ATOM     26  S   UNL     1       8.796   4.397 -10.112  1.00  0.00    +0.397 S 
ATOM     27  O   UNL     1       8.598   5.414 -11.121  1.00  0.00    -0.169 OA
ATOM     28  O   UNL     1      10.048   4.246  -9.406  1.00  0.00    -0.169 OA
BRANCH  26  29
ATOM     29  O   UNL     1       7.700   4.634  -8.957  1.00  0.00    -0.264 OA
ATOM     30  H   UNL     1       6.987   5.178  -9.349  1.00  0.00    +0.236 HD
ENDBRANCH  26  29
ENDBRANCH  25  26
ENDBRANCH  24  25
ENDBRANCH   5  24
BRANCH   4  31
ATOM     31  O   UNL     1       5.656   2.329 -13.785  1.00  0.00    -0.387 OA
ATOM     32  H   UNL     1       4.918   1.711 -13.986  1.00  0.00    +0.211 HD
ENDBRANCH   4  31
TORSDOF 11
ENDMDL
