MODEL 1
REMARK VINA RESULT:    -6.913      0.000      0.000
REMARK INTER + INTRA:         -20.796
REMARK INTER:                 -14.995
REMARK INTRA:                  -5.800
REMARK UNBOUND:                -5.800
REMARK SMILES OC[C@@H]1O[C@H](O[C@H]2[C@@H]3OC[C@H]2O[C@@H](O[C@@H]2[C@H](O)[C@@H](O[C@@H]4[C@@H]5OC[C@H]4O[C@H](O[C@@H]4[C@@H](O)[C@H](O)O[C@@H](CO)[C@H]4O)[C@@H]5O)O[C@H](CO)[C@H]2O)[C@H]3O)[C@@H](O)[C@H](O[C@@H]2O[C@@H]3CO[C@H]([C@H]2O)[C@@H]3O)[C@H]1O
REMARK SMILES IDX 15 1 45 2 42 3 41 4 18 5 16 6 14 7 13 8 7 9 11 10 8 11 10 12
REMARK SMILES IDX 12 13 9 14 47 15 6 16 5 17 51 18 63 19 49 20 3 21 4 22 52 23
REMARK SMILES IDX 53 24 56 25 55 26 57 27 61 28 54 29 58 30 59 31 62 32 60 34
REMARK SMILES IDX 64 36 50 38 2 40 1 41 48 43 46 45 17 47 43 49 44 50 19 52
REMARK SMILES IDX 20 53 24 54 21 55 23 56 25 57 22 58 39 59 26 60 40 61 27 63
REMARK SMILES IDX 28 64 37 65 29 66 34 67 31 68 33 69 38 70 30 72 35 74 36 75
REMARK SMILES IDX 32 77
REMARK H PARENT 62 33 60 35 64 37 50 39 1 42 48 44 46 46 17 48 44 51 40 62
REMARK H PARENT 38 71 30 73 36 76 32 78
ROOT
ATOM      1  C   UNL     1      13.088   8.878 -10.323  1.00  0.00    +0.186 C 
ATOM      2  C   UNL     1      12.924   7.809  -9.223  1.00  0.00    +0.177 C 
ATOM      3  C   UNL     1      13.874   6.607  -9.425  1.00  0.00    +0.178 C 
ATOM      4  O   UNL     1      14.316   6.506 -10.780  1.00  0.00    -0.341 OA
ATOM      5  C   UNL     1      15.119   7.619 -11.180  1.00  0.00    +0.282 C 
ATOM      6  C   UNL     1      14.579   8.984 -10.669  1.00  0.00    +0.202 C 
ENDROOT
BRANCH   1   7
ATOM      7  O   UNL     1      12.391   8.626 -11.567  1.00  0.00    -0.341 OA
BRANCH   7   8
ATOM      8  C   UNL     1      11.352   7.643 -11.467  1.00  0.00    +0.282 C 
ATOM      9  C   UNL     1       9.786   6.691 -13.755  1.00  0.00    +0.184 C 
ATOM     10  C   UNL     1      11.306   6.637 -13.682  1.00  0.00    +0.179 C 
ATOM     11  C   UNL     1       9.635   8.138 -13.291  1.00  0.00    +0.184 C 
ATOM     12  C   UNL     1      11.684   7.955 -14.358  1.00  0.00    +0.195 C 
ATOM     13  O   UNL     1      11.704   6.525 -12.297  1.00  0.00    -0.341 OA
ATOM     14  O   UNL     1      10.628   8.889 -14.032  1.00  0.00    -0.370 OA
ATOM     15  C   UNL     1       9.959   8.250 -11.793  1.00  0.00    +0.202 C 
BRANCH   9  16
ATOM     16  O   UNL     1       9.108   5.796 -12.884  1.00  0.00    -0.341 OA
BRANCH  16  17
ATOM     17  C   UNL     1       9.011   4.441 -13.365  1.00  0.00    +0.282 C 
ATOM     18  C   UNL     1      10.543   2.398 -13.680  1.00  0.00    +0.186 C 
ATOM     19  C   UNL     1       9.740   2.265 -14.983  1.00  0.00    +0.177 C 
ATOM     20  C   UNL     1      10.349   3.764 -13.003  1.00  0.00    +0.202 C 
ATOM     21  C   UNL     1       9.434   3.617 -15.630  1.00  0.00    +0.178 C 
ATOM     22  O   UNL     1       8.704   4.479 -14.753  1.00  0.00    -0.341 OA
BRANCH  18  23
ATOM     23  O   UNL     1      11.935   2.205 -14.015  1.00  0.00    -0.341 OA
BRANCH  23  24
ATOM     24  C   UNL     1      12.801   2.124 -12.875  1.00  0.00    +0.282 C 
ATOM     25  C   UNL     1      14.461   3.783 -14.660  1.00  0.00    +0.195 C 
ATOM     26  C   UNL     1      14.466   3.892 -13.136  1.00  0.00    +0.178 C 
ATOM     27  O   UNL     1      14.876   2.431 -14.965  1.00  0.00    -0.370 OA
ATOM     28  C   UNL     1      15.601   2.948 -12.791  1.00  0.00    +0.177 C 
ATOM     29  O   UNL     1      13.249   3.442 -12.511  1.00  0.00    -0.341 OA
ATOM     30  C   UNL     1      15.190   1.798 -13.704  1.00  0.00    +0.183 C 
ATOM     31  C   UNL     1      13.940   1.101 -13.147  1.00  0.00    +0.202 C 
BRANCH  28  32
ATOM     32  O   UNL     1      15.658   2.598 -11.415  1.00  0.00    -0.387 OA
ATOM     33  H   UNL     1      15.284   3.345 -10.909  1.00  0.00    +0.211 HD
ENDBRANCH  28  32
BRANCH  31  34
ATOM     34  O   UNL     1      14.275   0.390 -11.941  1.00  0.00    -0.385 OA
ATOM     35  H   UNL     1      14.857  -0.355 -12.209  1.00  0.00    +0.211 HD
ENDBRANCH  31  34
ENDBRANCH  23  24
ENDBRANCH  18  23
BRANCH  19  36
ATOM     36  O   UNL     1       8.494   1.621 -14.658  1.00  0.00    -0.387 OA
ATOM     37  H   UNL     1       8.421   1.582 -13.687  1.00  0.00    +0.211 HD
ENDBRANCH  19  36
BRANCH  20  38
ATOM     38  O   UNL     1      10.464   3.613 -11.574  1.00  0.00    -0.385 OA
ATOM     39  H   UNL     1      10.749   2.689 -11.420  1.00  0.00    +0.211 HD
ENDBRANCH  20  38
BRANCH  21  40
ATOM     40  C   UNL     1      10.652   4.358 -16.199  1.00  0.00    +0.191 C 
BRANCH  40  41
ATOM     41  O   UNL     1      10.205   5.484 -16.968  1.00  0.00    -0.394 OA
ATOM     42  H   UNL     1      10.751   6.240 -16.654  1.00  0.00    +0.210 HD
ENDBRANCH  40  41
ENDBRANCH  21  40
ENDBRANCH  16  17
ENDBRANCH   9  16
BRANCH  15  43
ATOM     43  O   UNL     1       9.876   9.615 -11.367  1.00  0.00    -0.385 OA
ATOM     44  H   UNL     1      10.543  10.085 -11.907  1.00  0.00    +0.211 HD
ENDBRANCH  15  43
ENDBRANCH   7   8
ENDBRANCH   1   7
BRANCH   2  45
ATOM     45  O   UNL     1      13.197   8.403  -7.943  1.00  0.00    -0.387 OA
ATOM     46  H   UNL     1      13.219   9.371  -8.097  1.00  0.00    +0.211 HD
ENDBRANCH   2  45
BRANCH   6  47
ATOM     47  O   UNL     1      14.776  10.004 -11.668  1.00  0.00    -0.385 OA
ATOM     48  H   UNL     1      15.617   9.780 -12.111  1.00  0.00    +0.211 HD
ENDBRANCH   6  47
BRANCH   3  49
ATOM     49  C   UNL     1      13.180   5.293  -9.041  1.00  0.00    +0.191 C 
BRANCH  49  50
ATOM     50  O   UNL     1      12.610   4.652 -10.179  1.00  0.00    -0.394 OA
ATOM     51  H   UNL     1      12.821   5.222 -10.954  1.00  0.00    +0.210 HD
ENDBRANCH  49  50
ENDBRANCH   3  49
BRANCH   5  52
ATOM     52  O   UNL     1      16.468   7.464 -10.724  1.00  0.00    -0.341 OA
BRANCH  52  53
ATOM     53  C   UNL     1      16.805   6.119 -10.376  1.00  0.00    +0.184 C 
ATOM     54  C   UNL     1      18.032   5.702 -11.169  1.00  0.00    +0.179 C 
ATOM     55  C   UNL     1      17.423   5.975  -8.981  1.00  0.00    +0.184 C 
ATOM     56  C   UNL     1      19.123   6.521 -10.474  1.00  0.00    +0.195 C 
ATOM     57  O   UNL     1      18.233   4.276 -11.046  1.00  0.00    -0.341 OA
ATOM     58  O   UNL     1      18.753   6.555  -9.073  1.00  0.00    -0.370 OA
ATOM     59  C   UNL     1      17.582   4.484  -8.662  1.00  0.00    +0.202 C 
ATOM     60  C   UNL     1      18.517   3.832  -9.713  1.00  0.00    +0.282 C 
BRANCH  59  61
ATOM     61  O   UNL     1      16.293   3.850  -8.651  1.00  0.00    -0.385 OA
ATOM     62  H   UNL     1      15.742   4.384  -8.045  1.00  0.00    +0.211 HD
ENDBRANCH  59  61
BRANCH  60  63
ATOM     63  O   UNL     1      18.299   2.416  -9.668  1.00  0.00    -0.341 OA
BRANCH  63  64
ATOM     64  C   UNL     1      19.503   1.632  -9.675  1.00  0.00    +0.186 C 
ATOM     65  C   UNL     1      19.425   0.664  -8.475  1.00  0.00    +0.177 C 
ATOM     66  C   UNL     1      19.730   0.822 -10.971  1.00  0.00    +0.202 C 
ATOM     67  C   UNL     1      18.371  -0.432  -8.738  1.00  0.00    +0.178 C 
ATOM     68  C   UNL     1      18.664  -0.291 -11.111  1.00  0.00    +0.279 C 
ATOM     69  O   UNL     1      18.658  -1.130  -9.959  1.00  0.00    -0.342 OA
BRANCH  65  70
ATOM     70  O   UNL     1      20.713   0.084  -8.212  1.00  0.00    -0.387 OA
ATOM     71  H   UNL     1      20.549  -0.809  -7.831  1.00  0.00    +0.211 HD
ENDBRANCH  65  70
BRANCH  66  72
ATOM     72  O   UNL     1      21.054   0.253 -10.912  1.00  0.00    -0.385 OA
ATOM     73  H   UNL     1      21.393   0.203 -11.826  1.00  0.00    +0.211 HD
ENDBRANCH  66  72
BRANCH  67  74
ATOM     74  C   UNL     1      18.293  -1.461  -7.595  1.00  0.00    +0.191 C 
BRANCH  74  75
ATOM     75  O   UNL     1      18.477  -0.894  -6.299  1.00  0.00    -0.394 OA
ATOM     76  H   UNL     1      19.402  -0.570  -6.262  1.00  0.00    +0.210 HD
ENDBRANCH  74  75
ENDBRANCH  67  74
BRANCH  68  77
ATOM     77  O   UNL     1      17.363   0.192 -11.399  1.00  0.00    -0.366 OA
ATOM     78  H   UNL     1      17.355   0.535 -12.313  1.00  0.00    +0.213 HD
ENDBRANCH  68  77
ENDBRANCH  63  64
ENDBRANCH  60  63
ENDBRANCH  52  53
ENDBRANCH   5  52
TORSDOF 27
ENDMDL
MODEL 2
REMARK VINA RESULT:    -6.861     32.780     37.259
REMARK INTER + INTRA:         -20.683
REMARK INTER:                 -16.953
REMARK INTRA:                  -3.730
REMARK UNBOUND:                -5.800
REMARK SMILES OC[C@@H]1O[C@H](O[C@H]2[C@@H]3OC[C@H]2O[C@@H](O[C@@H]2[C@H](O)[C@@H](O[C@@H]4[C@@H]5OC[C@H]4O[C@H](O[C@@H]4[C@@H](O)[C@H](O)O[C@@H](CO)[C@H]4O)[C@@H]5O)O[C@H](CO)[C@H]2O)[C@H]3O)[C@@H](O)[C@H](O[C@@H]2O[C@@H]3CO[C@H]([C@H]2O)[C@@H]3O)[C@H]1O
REMARK SMILES IDX 15 1 45 2 42 3 41 4 18 5 16 6 14 7 13 8 7 9 11 10 8 11 10 12
REMARK SMILES IDX 12 13 9 14 47 15 6 16 5 17 51 18 63 19 49 20 3 21 4 22 52 23
REMARK SMILES IDX 53 24 56 25 55 26 57 27 61 28 54 29 58 30 59 31 62 32 60 34
REMARK SMILES IDX 64 36 50 38 2 40 1 41 48 43 46 45 17 47 43 49 44 50 19 52
REMARK SMILES IDX 20 53 24 54 21 55 23 56 25 57 22 58 39 59 26 60 40 61 27 63
REMARK SMILES IDX 28 64 37 65 29 66 34 67 31 68 33 69 38 70 30 72 35 74 36 75
REMARK SMILES IDX 32 77
REMARK H PARENT 62 33 60 35 64 37 50 39 1 42 48 44 46 46 17 48 44 51 40 62
REMARK H PARENT 38 71 30 73 36 76 32 78
ROOT
ATOM      1  C   UNL     1       4.481  -2.971  21.109  1.00  0.00    +0.186 C 
ATOM      2  C   UNL     1       4.598  -4.509  21.108  1.00  0.00    +0.177 C 
ATOM      3  C   UNL     1       3.471  -5.185  21.920  1.00  0.00    +0.178 C 
ATOM      4  O   UNL     1       2.887  -4.284  22.863  1.00  0.00    -0.341 OA
ATOM      5  C   UNL     1       2.216  -3.190  22.234  1.00  0.00    +0.282 C 
ATOM      6  C   UNL     1       2.994  -2.604  21.023  1.00  0.00    +0.202 C 
ENDROOT
BRANCH   1   7
ATOM      7  O   UNL     1       5.008  -2.291  22.274  1.00  0.00    -0.341 OA
BRANCH   7   8
ATOM      8  C   UNL     1       5.779  -1.121  21.970  1.00  0.00    +0.282 C 
ATOM      9  C   UNL     1       8.375  -0.521  23.192  1.00  0.00    +0.184 C 
ATOM     10  C   UNL     1       8.064  -1.809  22.442  1.00  0.00    +0.179 C 
ATOM     11  C   UNL     1       7.117  -0.508  24.056  1.00  0.00    +0.184 C 
ATOM     12  C   UNL     1       7.621  -2.720  23.587  1.00  0.00    +0.195 C 
ATOM     13  O   UNL     1       7.050  -1.539  21.448  1.00  0.00    -0.341 OA
ATOM     14  O   UNL     1       6.974  -1.861  24.554  1.00  0.00    -0.370 OA
ATOM     15  C   UNL     1       5.888  -0.174  23.197  1.00  0.00    +0.202 C 
BRANCH   9  16
ATOM     16  O   UNL     1       8.457   0.644  22.381  1.00  0.00    -0.341 OA
BRANCH  16  17
ATOM     17  C   UNL     1       9.681   1.392  22.518  1.00  0.00    +0.282 C 
ATOM     18  C   UNL     1      12.131   1.227  21.749  1.00  0.00    +0.186 C 
ATOM     19  C   UNL     1      12.389   1.725  23.179  1.00  0.00    +0.177 C 
ATOM     20  C   UNL     1      10.687   0.744  21.543  1.00  0.00    +0.202 C 
ATOM     21  C   UNL     1      11.434   1.109  24.202  1.00  0.00    +0.178 C 
ATOM     22  O   UNL     1      10.065   1.376  23.887  1.00  0.00    -0.341 OA
BRANCH  18  23
ATOM     23  O   UNL     1      13.055   0.144  21.500  1.00  0.00    -0.341 OA
BRANCH  23  24
ATOM     24  C   UNL     1      13.719   0.227  20.232  1.00  0.00    +0.282 C 
ATOM     25  C   UNL     1      12.504  -2.449  19.998  1.00  0.00    +0.195 C 
ATOM     26  C   UNL     1      12.743  -1.508  18.818  1.00  0.00    +0.178 C 
ATOM     27  O   UNL     1      13.809  -2.713  20.568  1.00  0.00    -0.370 OA
ATOM     28  C   UNL     1      14.110  -1.977  18.358  1.00  0.00    +0.177 C 
ATOM     29  O   UNL     1      12.801  -0.116  19.179  1.00  0.00    -0.341 OA
ATOM     30  C   UNL     1      14.773  -2.039  19.729  1.00  0.00    +0.183 C 
ATOM     31  C   UNL     1      15.023  -0.620  20.260  1.00  0.00    +0.202 C 
BRANCH  28  32
ATOM     32  O   UNL     1      14.746  -1.087  17.450  1.00  0.00    -0.387 OA
ATOM     33  H   UNL     1      15.683  -1.351  17.391  1.00  0.00    +0.211 HD
ENDBRANCH  28  32
BRANCH  31  34
ATOM     34  O   UNL     1      16.054   0.018  19.484  1.00  0.00    -0.385 OA
ATOM     35  H   UNL     1      15.876   0.983  19.524  1.00  0.00    +0.211 HD
ENDBRANCH  31  34
ENDBRANCH  23  24
ENDBRANCH  18  23
BRANCH  19  36
ATOM     36  O   UNL     1      12.201   3.153  23.179  1.00  0.00    -0.387 OA
ATOM     37  H   UNL     1      11.610   3.378  22.438  1.00  0.00    +0.211 HD
ENDBRANCH  19  36
BRANCH  20  38
ATOM     38  O   UNL     1      10.288   0.985  20.178  1.00  0.00    -0.385 OA
ATOM     39  H   UNL     1      10.595   0.209  19.664  1.00  0.00    +0.211 HD
ENDBRANCH  20  38
BRANCH  21  40
ATOM     40  C   UNL     1      11.629  -0.392  24.454  1.00  0.00    +0.191 C 
BRANCH  40  41
ATOM     41  O   UNL     1      13.031  -0.700  24.423  1.00  0.00    -0.394 OA
ATOM     42  H   UNL     1      13.419  -0.055  23.789  1.00  0.00    +0.210 HD
ENDBRANCH  40  41
ENDBRANCH  21  40
ENDBRANCH  16  17
ENDBRANCH   9  16
BRANCH  15  43
ATOM     43  O   UNL     1       4.697  -0.219  23.994  1.00  0.00    -0.385 OA
ATOM     44  H   UNL     1       5.013  -0.385  24.905  1.00  0.00    +0.211 HD
ENDBRANCH  15  43
ENDBRANCH   7   8
ENDBRANCH   1   7
BRANCH   2  45
ATOM     45  O   UNL     1       4.542  -4.985  19.753  1.00  0.00    -0.387 OA
ATOM     46  H   UNL     1       5.271  -4.534  19.280  1.00  0.00    +0.211 HD
ENDBRANCH   2  45
BRANCH   6  47
ATOM     47  O   UNL     1       2.847  -1.171  20.981  1.00  0.00    -0.385 OA
ATOM     48  H   UNL     1       2.025  -1.005  20.480  1.00  0.00    +0.211 HD
ENDBRANCH   6  47
BRANCH   3  49
ATOM     49  C   UNL     1       4.004  -6.407  22.681  1.00  0.00    +0.191 C 
BRANCH  49  50
ATOM     50  O   UNL     1       5.043  -7.060  21.957  1.00  0.00    -0.394 OA
ATOM     51  H   UNL     1       4.657  -7.895  21.609  1.00  0.00    +0.210 HD
ENDBRANCH  49  50
ENDBRANCH   3  49
BRANCH   5  52
ATOM     52  O   UNL     1       0.911  -3.579  21.791  1.00  0.00    -0.341 OA
BRANCH  52  53
ATOM     53  C   UNL     1      -0.090  -2.582  22.013  1.00  0.00    +0.184 C 
ATOM     54  C   UNL     1      -1.453  -3.254  22.032  1.00  0.00    +0.179 C 
ATOM     55  C   UNL     1      -0.123  -2.046  23.449  1.00  0.00    +0.184 C 
ATOM     56  C   UNL     1      -1.398  -3.992  23.372  1.00  0.00    +0.195 C 
ATOM     57  O   UNL     1      -2.492  -2.251  21.983  1.00  0.00    -0.341 OA
ATOM     58  O   UNL     1      -0.653  -3.126  24.265  1.00  0.00    -0.370 OA
ATOM     59  C   UNL     1      -1.111  -0.877  23.518  1.00  0.00    +0.202 C 
ATOM     60  C   UNL     1      -2.524  -1.376  23.117  1.00  0.00    +0.282 C 
BRANCH  59  61
ATOM     61  O   UNL     1      -0.672   0.183  22.651  1.00  0.00    -0.385 OA
ATOM     62  H   UNL     1      -1.466   0.726  22.477  1.00  0.00    +0.211 HD
ENDBRANCH  59  61
BRANCH  60  63
ATOM     63  O   UNL     1      -3.305  -0.227  22.763  1.00  0.00    -0.341 OA
BRANCH  63  64
ATOM     64  C   UNL     1      -3.821   0.506  23.885  1.00  0.00    +0.186 C 
ATOM     65  C   UNL     1      -4.177   1.922  23.383  1.00  0.00    +0.177 C 
ATOM     66  C   UNL     1      -5.065  -0.130  24.546  1.00  0.00    +0.202 C 
ATOM     67  C   UNL     1      -5.426   1.870  22.478  1.00  0.00    +0.178 C 
ATOM     68  C   UNL     1      -6.278  -0.074  23.586  1.00  0.00    +0.279 C 
ATOM     69  O   UNL     1      -6.530   1.266  23.169  1.00  0.00    -0.342 OA
BRANCH  65  70
ATOM     70  O   UNL     1      -4.383   2.812  24.491  1.00  0.00    -0.387 OA
ATOM     71  H   UNL     1      -4.150   2.310  25.305  1.00  0.00    +0.211 HD
ENDBRANCH  65  70
BRANCH  66  72
ATOM     72  O   UNL     1      -5.343   0.598  25.759  1.00  0.00    -0.385 OA
ATOM     73  H   UNL     1      -5.428   1.542  25.522  1.00  0.00    +0.211 HD
ENDBRANCH  66  72
BRANCH  67  74
ATOM     74  C   UNL     1      -5.861   3.266  21.995  1.00  0.00    +0.191 C 
BRANCH  74  75
ATOM     75  O   UNL     1      -4.784   4.194  21.876  1.00  0.00    -0.394 OA
ATOM     76  H   UNL     1      -4.976   4.751  21.092  1.00  0.00    +0.210 HD
ENDBRANCH  74  75
ENDBRANCH  67  74
BRANCH  68  77
ATOM     77  O   UNL     1      -6.172  -0.946  22.474  1.00  0.00    -0.366 OA
ATOM     78  H   UNL     1      -5.320  -0.778  22.029  1.00  0.00    +0.213 HD
ENDBRANCH  68  77
ENDBRANCH  63  64
ENDBRANCH  60  63
ENDBRANCH  52  53
ENDBRANCH   5  52
TORSDOF 27
ENDMDL
MODEL 3
REMARK VINA RESULT:    -6.759      6.910     12.228
REMARK INTER + INTRA:         -20.463
REMARK INTER:                 -15.312
REMARK INTRA:                  -5.151
REMARK UNBOUND:                -5.800
REMARK SMILES OC[C@@H]1O[C@H](O[C@H]2[C@@H]3OC[C@H]2O[C@@H](O[C@@H]2[C@H](O)[C@@H](O[C@@H]4[C@@H]5OC[C@H]4O[C@H](O[C@@H]4[C@@H](O)[C@H](O)O[C@@H](CO)[C@H]4O)[C@@H]5O)O[C@H](CO)[C@H]2O)[C@H]3O)[C@@H](O)[C@H](O[C@@H]2O[C@@H]3CO[C@H]([C@H]2O)[C@@H]3O)[C@H]1O
REMARK SMILES IDX 15 1 45 2 42 3 41 4 18 5 16 6 14 7 13 8 7 9 11 10 8 11 10 12
REMARK SMILES IDX 12 13 9 14 47 15 6 16 5 17 51 18 63 19 49 20 3 21 4 22 52 23
REMARK SMILES IDX 53 24 56 25 55 26 57 27 61 28 54 29 58 30 59 31 62 32 60 34
REMARK SMILES IDX 64 36 50 38 2 40 1 41 48 43 46 45 17 47 43 49 44 50 19 52
REMARK SMILES IDX 20 53 24 54 21 55 23 56 25 57 22 58 39 59 26 60 40 61 27 63
REMARK SMILES IDX 28 64 37 65 29 66 34 67 31 68 33 69 38 70 30 72 35 74 36 75
REMARK SMILES IDX 32 77
REMARK H PARENT 62 33 60 35 64 37 50 39 1 42 48 44 46 46 17 48 44 51 40 62
REMARK H PARENT 38 71 30 73 36 76 32 78
ROOT
ATOM      1  C   UNL     1      10.390  13.663 -11.691  1.00  0.00    +0.186 C 
ATOM      2  C   UNL     1      11.287  13.338 -10.479  1.00  0.00    +0.177 C 
ATOM      3  C   UNL     1      12.762  13.118 -10.882  1.00  0.00    +0.178 C 
ATOM      4  O   UNL     1      12.888  12.782 -12.265  1.00  0.00    -0.341 OA
ATOM      5  C   UNL     1      12.475  13.844 -13.127  1.00  0.00    +0.282 C 
ATOM      6  C   UNL     1      11.184  14.564 -12.647  1.00  0.00    +0.202 C 
ENDROOT
BRANCH   1   7
ATOM      7  O   UNL     1       9.936  12.531 -12.472  1.00  0.00    -0.341 OA
BRANCH   7   8
ATOM      8  C   UNL     1       9.461  11.431 -11.684  1.00  0.00    +0.282 C 
ATOM      9  C   UNL     1       8.797   8.801 -12.796  1.00  0.00    +0.184 C 
ATOM     10  C   UNL     1      10.151   9.479 -12.962  1.00  0.00    +0.179 C 
ATOM     11  C   UNL     1       7.943  10.011 -13.167  1.00  0.00    +0.184 C 
ATOM     12  C   UNL     1       9.958  10.204 -14.294  1.00  0.00    +0.195 C 
ATOM     13  O   UNL     1      10.385  10.340 -11.826  1.00  0.00    -0.341 OA
ATOM     14  O   UNL     1       8.561  10.574 -14.350  1.00  0.00    -0.370 OA
ATOM     15  C   UNL     1       7.996  11.060 -12.046  1.00  0.00    +0.202 C 
BRANCH   9  16
ATOM     16  O   UNL     1       8.507   8.347 -11.481  1.00  0.00    -0.341 OA
BRANCH  16  17
ATOM     17  C   UNL     1       8.757   6.947 -11.254  1.00  0.00    +0.282 C 
ATOM     18  C   UNL     1      10.636   5.455 -10.324  1.00  0.00    +0.186 C 
ATOM     19  C   UNL     1      10.213   4.558 -11.497  1.00  0.00    +0.177 C 
ATOM     20  C   UNL     1      10.058   6.875 -10.427  1.00  0.00    +0.202 C 
ATOM     21  C   UNL     1       9.857   5.355 -12.753  1.00  0.00    +0.178 C 
ATOM     22  O   UNL     1       8.801   6.290 -12.514  1.00  0.00    -0.341 OA
BRANCH  18  23
ATOM     23  O   UNL     1      12.081   5.508 -10.326  1.00  0.00    -0.341 OA
BRANCH  23  24
ATOM     24  C   UNL     1      12.613   6.834 -10.216  1.00  0.00    +0.282 C 
ATOM     25  C   UNL     1      15.077   5.346 -10.855  1.00  0.00    +0.195 C 
ATOM     26  C   UNL     1      14.815   6.792 -11.271  1.00  0.00    +0.178 C 
ATOM     27  O   UNL     1      15.035   5.334  -9.409  1.00  0.00    -0.370 OA
ATOM     28  C   UNL     1      15.446   7.537 -10.111  1.00  0.00    +0.177 C 
ATOM     29  O   UNL     1      13.419   7.132 -11.370  1.00  0.00    -0.341 OA
ATOM     30  C   UNL     1      14.843   6.702  -8.986  1.00  0.00    +0.183 C 
ATOM     31  C   UNL     1      13.343   7.000  -8.852  1.00  0.00    +0.202 C 
BRANCH  28  32
ATOM     32  O   UNL     1      15.097   8.914 -10.056  1.00  0.00    -0.387 OA
ATOM     33  H   UNL     1      15.705   9.393 -10.651  1.00  0.00    +0.211 HD
ENDBRANCH  28  32
BRANCH  31  34
ATOM     34  O   UNL     1      13.153   8.331  -8.339  1.00  0.00    -0.385 OA
ATOM     35  H   UNL     1      13.566   8.348  -7.447  1.00  0.00    +0.211 HD
ENDBRANCH  31  34
ENDBRANCH  23  24
ENDBRANCH  18  23
BRANCH  19  36
ATOM     36  O   UNL     1       9.050   3.820 -11.078  1.00  0.00    -0.387 OA
ATOM     37  H   UNL     1       8.501   3.652 -11.866  1.00  0.00    +0.211 HD
ENDBRANCH  19  36
BRANCH  20  38
ATOM     38  O   UNL     1       9.840   7.403  -9.103  1.00  0.00    -0.385 OA
ATOM     39  H   UNL     1      10.555   7.036  -8.543  1.00  0.00    +0.211 HD
ENDBRANCH  20  38
BRANCH  21  40
ATOM     40  C   UNL     1      11.038   6.063 -13.433  1.00  0.00    +0.191 C 
BRANCH  40  41
ATOM     41  O   UNL     1      12.200   5.224 -13.357  1.00  0.00    -0.394 OA
ATOM     42  H   UNL     1      11.873   4.366 -13.002  1.00  0.00    +0.210 HD
ENDBRANCH  40  41
ENDBRANCH  21  40
ENDBRANCH  16  17
ENDBRANCH   9  16
BRANCH  15  43
ATOM     43  O   UNL     1       7.244  12.222 -12.416  1.00  0.00    -0.385 OA
ATOM     44  H   UNL     1       6.347  12.061 -12.059  1.00  0.00    +0.211 HD
ENDBRANCH  15  43
ENDBRANCH   7   8
ENDBRANCH   1   7
BRANCH   2  45
ATOM     45  O   UNL     1      11.222  14.423  -9.539  1.00  0.00    -0.387 OA
ATOM     46  H   UNL     1      11.576  15.206 -10.009  1.00  0.00    +0.211 HD
ENDBRANCH   2  45
BRANCH   6  47
ATOM     47  O   UNL     1      10.362  14.921 -13.774  1.00  0.00    -0.385 OA
ATOM     48  H   UNL     1      10.391  14.152 -14.376  1.00  0.00    +0.211 HD
ENDBRANCH   6  47
BRANCH   3  49
ATOM     49  C   UNL     1      13.394  11.994 -10.050  1.00  0.00    +0.191 C 
BRANCH  49  50
ATOM     50  O   UNL     1      12.772  10.739 -10.312  1.00  0.00    -0.394 OA
ATOM     51  H   UNL     1      13.286  10.321 -11.040  1.00  0.00    +0.210 HD
ENDBRANCH  49  50
ENDBRANCH   3  49
BRANCH   5  52
ATOM     52  O   UNL     1      13.514  14.820 -13.267  1.00  0.00    -0.341 OA
BRANCH  52  53
ATOM     53  C   UNL     1      13.050  16.088 -13.738  1.00  0.00    +0.184 C 
ATOM     54  C   UNL     1      13.891  17.183 -13.104  1.00  0.00    +0.179 C 
ATOM     55  C   UNL     1      13.423  16.382 -15.195  1.00  0.00    +0.184 C 
ATOM     56  C   UNL     1      15.217  17.003 -13.848  1.00  0.00    +0.195 C 
ATOM     57  O   UNL     1      13.280  18.470 -13.344  1.00  0.00    -0.341 OA
ATOM     58  O   UNL     1      14.857  16.619 -15.199  1.00  0.00    -0.370 OA
ATOM     59  C   UNL     1      12.732  17.680 -15.630  1.00  0.00    +0.202 C 
ATOM     60  C   UNL     1      13.213  18.845 -14.726  1.00  0.00    +0.282 C 
BRANCH  59  61
ATOM     61  O   UNL     1      11.306  17.520 -15.554  1.00  0.00    -0.385 OA
ATOM     62  H   UNL     1      11.102  17.434 -14.601  1.00  0.00    +0.211 HD
ENDBRANCH  59  61
BRANCH  60  63
ATOM     63  O   UNL     1      12.260  19.908 -14.845  1.00  0.00    -0.341 OA
BRANCH  63  64
ATOM     64  C   UNL     1      11.723  20.364 -13.593  1.00  0.00    +0.186 C 
ATOM     65  C   UNL     1      11.616  21.902 -13.674  1.00  0.00    +0.177 C 
ATOM     66  C   UNL     1      10.339  19.774 -13.239  1.00  0.00    +0.202 C 
ATOM     67  C   UNL     1      10.480  22.311 -14.636  1.00  0.00    +0.178 C 
ATOM     68  C   UNL     1       9.259  20.293 -14.219  1.00  0.00    +0.279 C 
ATOM     69  O   UNL     1       9.236  21.718 -14.234  1.00  0.00    -0.342 OA
BRANCH  65  70
ATOM     70  O   UNL     1      11.406  22.461 -12.368  1.00  0.00    -0.387 OA
ATOM     71  H   UNL     1      11.188  21.711 -11.769  1.00  0.00    +0.211 HD
ENDBRANCH  65  70
BRANCH  66  72
ATOM     72  O   UNL     1      10.025  20.161 -11.886  1.00  0.00    -0.385 OA
ATOM     73  H   UNL     1       9.858  21.123 -11.888  1.00  0.00    +0.211 HD
ENDBRANCH  66  72
BRANCH  67  74
ATOM     74  C   UNL     1      10.291  23.837 -14.710  1.00  0.00    +0.191 C 
BRANCH  74  75
ATOM     75  O   UNL     1       9.899  24.427 -13.471  1.00  0.00    -0.394 OA
ATOM     76  H   UNL     1       9.620  25.345 -13.671  1.00  0.00    +0.210 HD
ENDBRANCH  74  75
ENDBRANCH  67  74
BRANCH  68  77
ATOM     77  O   UNL     1       9.373  19.769 -15.531  1.00  0.00    -0.366 OA
ATOM     78  H   UNL     1      10.243  19.334 -15.617  1.00  0.00    +0.213 HD
ENDBRANCH  68  77
ENDBRANCH  63  64
ENDBRANCH  60  63
ENDBRANCH  52  53
ENDBRANCH   5  52
TORSDOF 27
ENDMDL
MODEL 4
REMARK VINA RESULT:    -6.624      6.801     12.597
REMARK INTER + INTRA:         -20.169
REMARK INTER:                 -16.312
REMARK INTRA:                  -3.857
REMARK UNBOUND:                -5.800
REMARK SMILES OC[C@@H]1O[C@H](O[C@H]2[C@@H]3OC[C@H]2O[C@@H](O[C@@H]2[C@H](O)[C@@H](O[C@@H]4[C@@H]5OC[C@H]4O[C@H](O[C@@H]4[C@@H](O)[C@H](O)O[C@@H](CO)[C@H]4O)[C@@H]5O)O[C@H](CO)[C@H]2O)[C@H]3O)[C@@H](O)[C@H](O[C@@H]2O[C@@H]3CO[C@H]([C@H]2O)[C@@H]3O)[C@H]1O
REMARK SMILES IDX 15 1 45 2 42 3 41 4 18 5 16 6 14 7 13 8 7 9 11 10 8 11 10 12
REMARK SMILES IDX 12 13 9 14 47 15 6 16 5 17 51 18 63 19 49 20 3 21 4 22 52 23
REMARK SMILES IDX 53 24 56 25 55 26 57 27 61 28 54 29 58 30 59 31 62 32 60 34
REMARK SMILES IDX 64 36 50 38 2 40 1 41 48 43 46 45 17 47 43 49 44 50 19 52
REMARK SMILES IDX 20 53 24 54 21 55 23 56 25 57 22 58 39 59 26 60 40 61 27 63
REMARK SMILES IDX 28 64 37 65 29 66 34 67 31 68 33 69 38 70 30 72 35 74 36 75
REMARK SMILES IDX 32 77
REMARK H PARENT 62 33 60 35 64 37 50 39 1 42 48 44 46 46 17 48 44 51 40 62
REMARK H PARENT 38 71 30 73 36 76 32 78
ROOT
ATOM      1  C   UNL     1       6.444  11.911 -15.309  1.00  0.00    +0.186 C 
ATOM      2  C   UNL     1       5.239  11.854 -14.347  1.00  0.00    +0.177 C 
ATOM      3  C   UNL     1       5.394  12.822 -13.153  1.00  0.00    +0.178 C 
ATOM      4  O   UNL     1       6.760  13.173 -12.932  1.00  0.00    -0.341 OA
ATOM      5  C   UNL     1       7.319  13.914 -14.019  1.00  0.00    +0.282 C 
ATOM      6  C   UNL     1       6.903  13.371 -15.414  1.00  0.00    +0.202 C 
ENDROOT
BRANCH   1   7
ATOM      7  O   UNL     1       7.606  11.139 -14.922  1.00  0.00    -0.341 OA
BRANCH   7   8
ATOM      8  C   UNL     1       7.306   9.994 -14.114  1.00  0.00    +0.282 C 
ATOM      9  C   UNL     1       9.332   8.445 -12.668  1.00  0.00    +0.184 C 
ATOM     10  C   UNL     1       9.126   9.944 -12.500  1.00  0.00    +0.179 C 
ATOM     11  C   UNL     1       9.324   8.432 -14.195  1.00  0.00    +0.184 C 
ATOM     12  C   UNL     1      10.126  10.497 -13.516  1.00  0.00    +0.195 C 
ATOM     13  O   UNL     1       7.742  10.260 -12.771  1.00  0.00    -0.341 OA
ATOM     14  O   UNL     1      10.171   9.537 -14.597  1.00  0.00    -0.370 OA
ATOM     15  C   UNL     1       7.904   8.694 -14.720  1.00  0.00    +0.202 C 
BRANCH   9  16
ATOM     16  O   UNL     1       8.294   7.630 -12.140  1.00  0.00    -0.341 OA
BRANCH  16  17
ATOM     17  C   UNL     1       8.740   6.420 -11.499  1.00  0.00    +0.282 C 
ATOM     18  C   UNL     1      10.893   5.482 -10.448  1.00  0.00    +0.186 C 
ATOM     19  C   UNL     1      10.431   4.204 -11.162  1.00  0.00    +0.177 C 
ATOM     20  C   UNL     1      10.138   6.733 -10.926  1.00  0.00    +0.202 C 
ATOM     21  C   UNL     1       9.817   4.482 -12.535  1.00  0.00    +0.178 C 
ATOM     22  O   UNL     1       8.697   5.366 -12.453  1.00  0.00    -0.341 OA
BRANCH  18  23
ATOM     23  O   UNL     1      12.308   5.629 -10.708  1.00  0.00    -0.341 OA
BRANCH  23  24
ATOM     24  C   UNL     1      13.109   5.722  -9.523  1.00  0.00    +0.282 C 
ATOM     25  C   UNL     1      13.617   8.381 -10.691  1.00  0.00    +0.195 C 
ATOM     26  C   UNL     1      13.594   8.092  -9.191  1.00  0.00    +0.178 C 
ATOM     27  O   UNL     1      14.674   7.558 -11.239  1.00  0.00    -0.370 OA
ATOM     28  C   UNL     1      15.063   7.812  -8.937  1.00  0.00    +0.177 C 
ATOM     29  O   UNL     1      12.807   6.944  -8.825  1.00  0.00    -0.341 OA
ATOM     30  C   UNL     1      15.297   6.884 -10.124  1.00  0.00    +0.183 C 
ATOM     31  C   UNL     1      14.610   5.532  -9.882  1.00  0.00    +0.202 C 
BRANCH  28  32
ATOM     32  O   UNL     1      15.321   7.210  -7.676  1.00  0.00    -0.387 OA
ATOM     33  H   UNL     1      14.508   7.290  -7.142  1.00  0.00    +0.211 HD
ENDBRANCH  28  32
BRANCH  31  34
ATOM     34  O   UNL     1      15.292   4.818  -8.835  1.00  0.00    -0.385 OA
ATOM     35  H   UNL     1      15.599   5.493  -8.191  1.00  0.00    +0.211 HD
ENDBRANCH  31  34
ENDBRANCH  23  24
ENDBRANCH  18  23
BRANCH  19  36
ATOM     36  O   UNL     1       9.432   3.583 -10.331  1.00  0.00    -0.387 OA
ATOM     37  H   UNL     1       9.801   2.748  -9.991  1.00  0.00    +0.211 HD
ENDBRANCH  19  36
BRANCH  20  38
ATOM     38  O   UNL     1      10.035   7.677  -9.840  1.00  0.00    -0.385 OA
ATOM     39  H   UNL     1      10.930   7.739  -9.448  1.00  0.00    +0.211 HD
ENDBRANCH  20  38
BRANCH  21  40
ATOM     40  C   UNL     1      10.802   4.983 -13.600  1.00  0.00    +0.191 C 
BRANCH  40  41
ATOM     41  O   UNL     1      11.870   4.035 -13.742  1.00  0.00    -0.394 OA
ATOM     42  H   UNL     1      11.458   3.249 -14.171  1.00  0.00    +0.210 HD
ENDBRANCH  40  41
ENDBRANCH  21  40
ENDBRANCH  16  17
ENDBRANCH   9  16
BRANCH  15  43
ATOM     43  O   UNL     1       7.903   8.742 -16.152  1.00  0.00    -0.385 OA
ATOM     44  H   UNL     1       8.300   7.891 -16.429  1.00  0.00    +0.211 HD
ENDBRANCH  15  43
ENDBRANCH   7   8
ENDBRANCH   1   7
BRANCH   2  45
ATOM     45  O   UNL     1       4.044  12.196 -15.068  1.00  0.00    -0.387 OA
ATOM     46  H   UNL     1       3.969  11.538 -15.790  1.00  0.00    +0.211 HD
ENDBRANCH   2  45
BRANCH   6  47
ATOM     47  O   UNL     1       8.005  13.470 -16.337  1.00  0.00    -0.385 OA
ATOM     48  H   UNL     1       8.589  12.715 -16.131  1.00  0.00    +0.211 HD
ENDBRANCH   6  47
BRANCH   3  49
ATOM     49  C   UNL     1       4.839  12.194 -11.866  1.00  0.00    +0.191 C 
BRANCH  49  50
ATOM     50  O   UNL     1       4.853  10.771 -11.933  1.00  0.00    -0.394 OA
ATOM     51  H   UNL     1       4.135  10.515 -12.555  1.00  0.00    +0.210 HD
ENDBRANCH  49  50
ENDBRANCH   3  49
BRANCH   5  52
ATOM     52  O   UNL     1       6.947  15.295 -13.939  1.00  0.00    -0.341 OA
BRANCH  52  53
ATOM     53  C   UNL     1       8.027  16.159 -13.573  1.00  0.00    +0.184 C 
ATOM     54  C   UNL     1       9.011  16.226 -14.729  1.00  0.00    +0.179 C 
ATOM     55  C   UNL     1       7.653  17.646 -13.557  1.00  0.00    +0.184 C 
ATOM     56  C   UNL     1       8.223  17.066 -15.738  1.00  0.00    +0.195 C 
ATOM     57  O   UNL     1      10.232  16.866 -14.294  1.00  0.00    -0.341 OA
ATOM     58  O   UNL     1       7.480  18.028 -14.948  1.00  0.00    -0.370 OA
ATOM     59  C   UNL     1       8.832  18.446 -12.993  1.00  0.00    +0.202 C 
ATOM     60  C   UNL     1      10.075  18.234 -13.897  1.00  0.00    +0.282 C 
BRANCH  59  61
ATOM     61  O   UNL     1       9.098  18.033 -11.642  1.00  0.00    -0.385 OA
ATOM     62  H   UNL     1       8.362  18.393 -11.108  1.00  0.00    +0.211 HD
ENDBRANCH  59  61
BRANCH  60  63
ATOM     63  O   UNL     1      11.232  18.605 -13.137  1.00  0.00    -0.341 OA
BRANCH  63  64
ATOM     64  C   UNL     1      12.220  19.333 -13.884  1.00  0.00    +0.186 C 
ATOM     65  C   UNL     1      11.642  20.739 -14.159  1.00  0.00    +0.177 C 
ATOM     66  C   UNL     1      13.584  19.473 -13.171  1.00  0.00    +0.202 C 
ATOM     67  C   UNL     1      11.602  21.566 -12.857  1.00  0.00    +0.178 C 
ATOM     68  C   UNL     1      13.453  20.371 -11.918  1.00  0.00    +0.279 C 
ATOM     69  O   UNL     1      12.907  21.642 -12.263  1.00  0.00    -0.342 OA
BRANCH  65  70
ATOM     70  O   UNL     1      12.410  21.410 -15.169  1.00  0.00    -0.387 OA
ATOM     71  H   UNL     1      13.358  21.281 -14.937  1.00  0.00    +0.211 HD
ENDBRANCH  65  70
BRANCH  66  72
ATOM     72  O   UNL     1      14.518  20.043 -14.110  1.00  0.00    -0.385 OA
ATOM     73  H   UNL     1      14.036  20.714 -14.631  1.00  0.00    +0.211 HD
ENDBRANCH  66  72
BRANCH  67  74
ATOM     74  C   UNL     1      11.087  22.999 -13.085  1.00  0.00    +0.191 C 
BRANCH  74  75
ATOM     75  O   UNL     1      10.274  23.137 -14.249  1.00  0.00    -0.394 OA
ATOM     76  H   UNL     1       9.440  23.567 -13.961  1.00  0.00    +0.210 HD
ENDBRANCH  74  75
ENDBRANCH  67  74
BRANCH  68  77
ATOM     77  O   UNL     1      12.730  19.774 -10.855  1.00  0.00    -0.366 OA
ATOM     78  H   UNL     1      13.046  20.155 -10.014  1.00  0.00    +0.213 HD
ENDBRANCH  68  77
ENDBRANCH  63  64
ENDBRANCH  60  63
ENDBRANCH  52  53
ENDBRANCH   5  52
TORSDOF 27
ENDMDL
MODEL 5
REMARK VINA RESULT:    -6.618      7.659     12.958
REMARK INTER + INTRA:         -20.157
REMARK INTER:                 -16.001
REMARK INTRA:                  -4.156
REMARK UNBOUND:                -5.800
REMARK SMILES OC[C@@H]1O[C@H](O[C@H]2[C@@H]3OC[C@H]2O[C@@H](O[C@@H]2[C@H](O)[C@@H](O[C@@H]4[C@@H]5OC[C@H]4O[C@H](O[C@@H]4[C@@H](O)[C@H](O)O[C@@H](CO)[C@H]4O)[C@@H]5O)O[C@H](CO)[C@H]2O)[C@H]3O)[C@@H](O)[C@H](O[C@@H]2O[C@@H]3CO[C@H]([C@H]2O)[C@@H]3O)[C@H]1O
REMARK SMILES IDX 15 1 45 2 42 3 41 4 18 5 16 6 14 7 13 8 7 9 11 10 8 11 10 12
REMARK SMILES IDX 12 13 9 14 47 15 6 16 5 17 51 18 63 19 49 20 3 21 4 22 52 23
REMARK SMILES IDX 53 24 56 25 55 26 57 27 61 28 54 29 58 30 59 31 62 32 60 34
REMARK SMILES IDX 64 36 50 38 2 40 1 41 48 43 46 45 17 47 43 49 44 50 19 52
REMARK SMILES IDX 20 53 24 54 21 55 23 56 25 57 22 58 39 59 26 60 40 61 27 63
REMARK SMILES IDX 28 64 37 65 29 66 34 67 31 68 33 69 38 70 30 72 35 74 36 75
REMARK SMILES IDX 32 77
REMARK H PARENT 62 33 60 35 64 37 50 39 1 42 48 44 46 46 17 48 44 51 40 62
REMARK H PARENT 38 71 30 73 36 76 32 78
ROOT
ATOM      1  C   UNL     1      13.908  11.402 -12.804  1.00  0.00    +0.186 C 
ATOM      2  C   UNL     1      15.100  11.254 -11.837  1.00  0.00    +0.177 C 
ATOM      3  C   UNL     1      14.810  10.254 -10.695  1.00  0.00    +0.178 C 
ATOM      4  O   UNL     1      13.408  10.071 -10.497  1.00  0.00    -0.341 OA
ATOM      5  C   UNL     1      12.768   9.466 -11.623  1.00  0.00    +0.282 C 
ATOM      6  C   UNL     1      13.265  10.021 -12.987  1.00  0.00    +0.202 C 
ENDROOT
BRANCH   1   7
ATOM      7  O   UNL     1      12.851  12.298 -12.381  1.00  0.00    -0.341 OA
BRANCH   7   8
ATOM      8  C   UNL     1      12.896  13.590 -13.002  1.00  0.00    +0.282 C 
ATOM      9  C   UNL     1      11.194  15.839 -12.203  1.00  0.00    +0.184 C 
ATOM     10  C   UNL     1      12.115  15.088 -11.252  1.00  0.00    +0.179 C 
ATOM     11  C   UNL     1      10.560  14.608 -12.848  1.00  0.00    +0.184 C 
ATOM     12  C   UNL     1      11.163  14.034 -10.686  1.00  0.00    +0.195 C 
ATOM     13  O   UNL     1      13.234  14.562 -12.000  1.00  0.00    -0.341 OA
ATOM     14  O   UNL     1      10.237  13.719 -11.751  1.00  0.00    -0.370 OA
ATOM     15  C   UNL     1      11.577  13.905 -13.760  1.00  0.00    +0.202 C 
BRANCH   9  16
ATOM     16  O   UNL     1      11.853  16.646 -13.169  1.00  0.00    -0.341 OA
BRANCH  16  17
ATOM     17  C   UNL     1      12.352  17.902 -12.670  1.00  0.00    +0.282 C 
ATOM     18  C   UNL     1      12.138  20.408 -13.213  1.00  0.00    +0.186 C 
ATOM     19  C   UNL     1      13.640  20.388 -12.891  1.00  0.00    +0.177 C 
ATOM     20  C   UNL     1      11.555  18.999 -13.407  1.00  0.00    +0.202 C 
ATOM     21  C   UNL     1      14.338  19.128 -13.407  1.00  0.00    +0.178 C 
ATOM     22  O   UNL     1      13.760  17.936 -12.870  1.00  0.00    -0.341 OA
BRANCH  18  23
ATOM     23  O   UNL     1      11.971  21.183 -14.421  1.00  0.00    -0.341 OA
BRANCH  23  24
ATOM     24  C   UNL     1      11.081  22.299 -14.277  1.00  0.00    +0.282 C 
ATOM     25  C   UNL     1       9.522  20.642 -16.151  1.00  0.00    +0.195 C 
ATOM     26  C   UNL     1       8.904  21.567 -15.105  1.00  0.00    +0.178 C 
ATOM     27  O   UNL     1      10.310  21.491 -17.019  1.00  0.00    -0.370 OA
ATOM     28  C   UNL     1       8.727  22.834 -15.919  1.00  0.00    +0.177 C 
ATOM     29  O   UNL     1       9.756  21.828 -13.974  1.00  0.00    -0.341 OA
ATOM     30  C   UNL     1      10.107  22.849 -16.568  1.00  0.00    +0.183 C 
ATOM     31  C   UNL     1      11.176  23.217 -15.529  1.00  0.00    +0.202 C 
BRANCH  28  32
ATOM     32  O   UNL     1       8.447  23.985 -15.135  1.00  0.00    -0.387 OA
ATOM     33  H   UNL     1       7.935  24.601 -15.693  1.00  0.00    +0.211 HD
ENDBRANCH  28  32
BRANCH  31  34
ATOM     34  O   UNL     1      11.034  24.598 -15.151  1.00  0.00    -0.385 OA
ATOM     35  H   UNL     1      11.928  24.908 -14.886  1.00  0.00    +0.211 HD
ENDBRANCH  31  34
ENDBRANCH  23  24
ENDBRANCH  18  23
BRANCH  19  36
ATOM     36  O   UNL     1      13.775  20.432 -11.458  1.00  0.00    -0.387 OA
ATOM     37  H   UNL     1      13.208  21.152 -11.125  1.00  0.00    +0.211 HD
ENDBRANCH  19  36
BRANCH  20  38
ATOM     38  O   UNL     1      10.177  18.986 -12.985  1.00  0.00    -0.385 OA
ATOM     39  H   UNL     1       9.828  18.102 -13.221  1.00  0.00    +0.211 HD
ENDBRANCH  20  38
BRANCH  21  40
ATOM     40  C   UNL     1      14.440  19.018 -14.934  1.00  0.00    +0.191 C 
BRANCH  40  41
ATOM     41  O   UNL     1      14.764  20.305 -15.481  1.00  0.00    -0.394 OA
ATOM     42  H   UNL     1      13.931  20.826 -15.418  1.00  0.00    +0.210 HD
ENDBRANCH  40  41
ENDBRANCH  21  40
ENDBRANCH  16  17
ENDBRANCH   9  16
BRANCH  15  43
ATOM     43  O   UNL     1      11.004  12.717 -14.321  1.00  0.00    -0.385 OA
ATOM     44  H   UNL     1      11.250  12.746 -15.268  1.00  0.00    +0.211 HD
ENDBRANCH  15  43
ENDBRANCH   7   8
ENDBRANCH   1   7
BRANCH   2  45
ATOM     45  O   UNL     1      16.249  10.797 -12.571  1.00  0.00    -0.387 OA
ATOM     46  H   UNL     1      16.111  11.093 -13.495  1.00  0.00    +0.211 HD
ENDBRANCH   2  45
BRANCH   6  47
ATOM     47  O   UNL     1      12.169  10.114 -13.917  1.00  0.00    -0.385 OA
ATOM     48  H   UNL     1      11.891   9.194 -14.090  1.00  0.00    +0.211 HD
ENDBRANCH   6  47
BRANCH   3  49
ATOM     49  C   UNL     1      15.428  10.737  -9.376  1.00  0.00    +0.191 C 
BRANCH  49  50
ATOM     50  O   UNL     1      14.477  10.714  -8.316  1.00  0.00    -0.394 OA
ATOM     51  H   UNL     1      14.364  11.647  -8.024  1.00  0.00    +0.210 HD
ENDBRANCH  49  50
ENDBRANCH   3  49
BRANCH   5  52
ATOM     52  O   UNL     1      12.958   8.046 -11.615  1.00  0.00    -0.341 OA
BRANCH  52  53
ATOM     53  C   UNL     1      11.842   7.316 -12.131  1.00  0.00    +0.184 C 
ATOM     54  C   UNL     1      11.828   5.934 -11.500  1.00  0.00    +0.179 C 
ATOM     55  C   UNL     1      10.488   7.786 -11.584  1.00  0.00    +0.184 C 
ATOM     56  C   UNL     1      11.392   6.266 -10.070  1.00  0.00    +0.195 C 
ATOM     57  O   UNL     1      10.884   5.089 -12.195  1.00  0.00    -0.341 OA
ATOM     58  O   UNL     1      10.450   7.362 -10.195  1.00  0.00    -0.370 OA
ATOM     59  C   UNL     1       9.371   7.049 -12.331  1.00  0.00    +0.202 C 
ATOM     60  C   UNL     1       9.521   5.522 -12.102  1.00  0.00    +0.282 C 
BRANCH  59  61
ATOM     61  O   UNL     1       9.428   7.370 -13.731  1.00  0.00    -0.385 OA
ATOM     62  H   UNL     1      10.313   7.761 -13.875  1.00  0.00    +0.211 HD
ENDBRANCH  59  61
BRANCH  60  63
ATOM     63  O   UNL     1       8.777   4.854 -13.128  1.00  0.00    -0.341 OA
BRANCH  63  64
ATOM     64  C   UNL     1       7.756   3.971 -12.638  1.00  0.00    +0.186 C 
ATOM     65  C   UNL     1       7.027   3.388 -13.868  1.00  0.00    +0.177 C 
ATOM     66  C   UNL     1       8.280   2.814 -11.758  1.00  0.00    +0.202 C 
ATOM     67  C   UNL     1       7.939   2.385 -14.606  1.00  0.00    +0.178 C 
ATOM     68  C   UNL     1       9.127   1.831 -12.602  1.00  0.00    +0.279 C 
ATOM     69  O   UNL     1       8.380   1.349 -13.716  1.00  0.00    -0.342 OA
BRANCH  65  70
ATOM     70  O   UNL     1       5.794   2.765 -13.474  1.00  0.00    -0.387 OA
ATOM     71  H   UNL     1       5.083   3.431 -13.610  1.00  0.00    +0.211 HD
ENDBRANCH  65  70
BRANCH  66  72
ATOM     72  O   UNL     1       7.140   2.141 -11.186  1.00  0.00    -0.385 OA
ATOM     73  H   UNL     1       6.353   2.687 -11.374  1.00  0.00    +0.211 HD
ENDBRANCH  66  72
BRANCH  67  74
ATOM     74  C   UNL     1       7.240   1.728 -15.810  1.00  0.00    +0.191 C 
BRANCH  74  75
ATOM     75  O   UNL     1       6.021   2.368 -16.185  1.00  0.00    -0.394 OA
ATOM     76  H   UNL     1       5.499   2.485 -15.363  1.00  0.00    +0.210 HD
ENDBRANCH  74  75
ENDBRANCH  67  74
BRANCH  68  77
ATOM     77  O   UNL     1      10.378   2.355 -13.012  1.00  0.00    -0.366 OA
ATOM     78  H   UNL     1      10.911   2.543 -12.217  1.00  0.00    +0.213 HD
ENDBRANCH  68  77
ENDBRANCH  63  64
ENDBRANCH  60  63
ENDBRANCH  52  53
ENDBRANCH   5  52
TORSDOF 27
ENDMDL
MODEL 6
REMARK VINA RESULT:    -6.562      6.830     11.875
REMARK INTER + INTRA:         -20.036
REMARK INTER:                 -17.057
REMARK INTRA:                  -2.979
REMARK UNBOUND:                -5.800
REMARK SMILES OC[C@@H]1O[C@H](O[C@H]2[C@@H]3OC[C@H]2O[C@@H](O[C@@H]2[C@H](O)[C@@H](O[C@@H]4[C@@H]5OC[C@H]4O[C@H](O[C@@H]4[C@@H](O)[C@H](O)O[C@@H](CO)[C@H]4O)[C@@H]5O)O[C@H](CO)[C@H]2O)[C@H]3O)[C@@H](O)[C@H](O[C@@H]2O[C@@H]3CO[C@H]([C@H]2O)[C@@H]3O)[C@H]1O
REMARK SMILES IDX 15 1 45 2 42 3 41 4 18 5 16 6 14 7 13 8 7 9 11 10 8 11 10 12
REMARK SMILES IDX 12 13 9 14 47 15 6 16 5 17 51 18 63 19 49 20 3 21 4 22 52 23
REMARK SMILES IDX 53 24 56 25 55 26 57 27 61 28 54 29 58 30 59 31 62 32 60 34
REMARK SMILES IDX 64 36 50 38 2 40 1 41 48 43 46 45 17 47 43 49 44 50 19 52
REMARK SMILES IDX 20 53 24 54 21 55 23 56 25 57 22 58 39 59 26 60 40 61 27 63
REMARK SMILES IDX 28 64 37 65 29 66 34 67 31 68 33 69 38 70 30 72 35 74 36 75
REMARK SMILES IDX 32 77
REMARK H PARENT 62 33 60 35 64 37 50 39 1 42 48 44 46 46 17 48 44 51 40 62
REMARK H PARENT 38 71 30 73 36 76 32 78
ROOT
ATOM      1  C   UNL     1       8.487   9.822 -13.782  1.00  0.00    +0.186 C 
ATOM      2  C   UNL     1       8.799   9.106 -15.113  1.00  0.00    +0.177 C 
ATOM      3  C   UNL     1       9.430   7.713 -14.897  1.00  0.00    +0.178 C 
ATOM      4  O   UNL     1      10.023   7.597 -13.603  1.00  0.00    -0.341 OA
ATOM      5  C   UNL     1       9.061   7.679 -12.549  1.00  0.00    +0.282 C 
ATOM      6  C   UNL     1       7.983   8.774 -12.781  1.00  0.00    +0.202 C 
ENDROOT
BRANCH   1   7
ATOM      7  O   UNL     1       9.598  10.500 -13.147  1.00  0.00    -0.341 OA
BRANCH   7   8
ATOM      8  C   UNL     1       9.554  11.929 -13.262  1.00  0.00    +0.282 C 
ATOM      9  C   UNL     1      11.702  13.701 -12.346  1.00  0.00    +0.184 C 
ATOM     10  C   UNL     1      11.901  12.564 -13.339  1.00  0.00    +0.179 C 
ATOM     11  C   UNL     1      10.896  12.906 -11.322  1.00  0.00    +0.184 C 
ATOM     12  C   UNL     1      12.307  11.422 -12.406  1.00  0.00    +0.195 C 
ATOM     13  O   UNL     1      10.669  12.353 -14.062  1.00  0.00    -0.341 OA
ATOM     14  O   UNL     1      11.599  11.649 -11.165  1.00  0.00    -0.370 OA
ATOM     15  C   UNL     1       9.490  12.612 -11.868  1.00  0.00    +0.202 C 
BRANCH   9  16
ATOM     16  O   UNL     1      10.962  14.810 -12.839  1.00  0.00    -0.341 OA
BRANCH  16  17
ATOM     17  C   UNL     1      11.313  16.080 -12.258  1.00  0.00    +0.282 C 
ATOM     18  C   UNL     1      10.771  18.571 -12.608  1.00  0.00    +0.186 C 
ATOM     19  C   UNL     1      12.272  18.718 -12.318  1.00  0.00    +0.177 C 
ATOM     20  C   UNL     1      10.364  17.117 -12.896  1.00  0.00    +0.202 C 
ATOM     21  C   UNL     1      13.108  17.598 -12.939  1.00  0.00    +0.178 C 
ATOM     22  O   UNL     1      12.699  16.307 -12.481  1.00  0.00    -0.341 OA
BRANCH  18  23
ATOM     23  O   UNL     1      10.473  19.403 -13.752  1.00  0.00    -0.341 OA
BRANCH  23  24
ATOM     24  C   UNL     1      10.108  20.747 -13.413  1.00  0.00    +0.282 C 
ATOM     25  C   UNL     1      10.461  21.033 -16.326  1.00  0.00    +0.195 C 
ATOM     26  C   UNL     1       9.464  21.842 -15.498  1.00  0.00    +0.178 C 
ATOM     27  O   UNL     1      11.769  21.344 -15.790  1.00  0.00    -0.370 OA
ATOM     28  C   UNL     1      10.297  23.068 -15.175  1.00  0.00    +0.177 C 
ATOM     29  O   UNL     1       9.051  21.197 -14.280  1.00  0.00    -0.341 OA
ATOM     30  C   UNL     1      11.572  22.340 -14.762  1.00  0.00    +0.183 C 
ATOM     31  C   UNL     1      11.372  21.653 -13.404  1.00  0.00    +0.202 C 
BRANCH  28  32
ATOM     32  O   UNL     1       9.743  23.884 -14.152  1.00  0.00    -0.387 OA
ATOM     33  H   UNL     1      10.230  24.730 -14.158  1.00  0.00    +0.211 HD
ENDBRANCH  28  32
BRANCH  31  34
ATOM     34  O   UNL     1      11.272  22.644 -12.365  1.00  0.00    -0.385 OA
ATOM     35  H   UNL     1      10.480  23.187 -12.573  1.00  0.00    +0.211 HD
ENDBRANCH  31  34
ENDBRANCH  23  24
ENDBRANCH  18  23
BRANCH  19  36
ATOM     36  O   UNL     1      12.441  18.677 -10.888  1.00  0.00    -0.387 OA
ATOM     37  H   UNL     1      13.395  18.613 -10.701  1.00  0.00    +0.211 HD
ENDBRANCH  19  36
BRANCH  20  38
ATOM     38  O   UNL     1       9.011  16.898 -12.449  1.00  0.00    -0.385 OA
ATOM     39  H   UNL     1       9.080  16.486 -11.563  1.00  0.00    +0.211 HD
ENDBRANCH  20  38
BRANCH  21  40
ATOM     40  C   UNL     1      13.179  17.611 -14.472  1.00  0.00    +0.191 C 
BRANCH  40  41
ATOM     41  O   UNL     1      13.244  18.969 -14.932  1.00  0.00    -0.394 OA
ATOM     42  H   UNL     1      14.097  19.316 -14.583  1.00  0.00    +0.210 HD
ENDBRANCH  40  41
ENDBRANCH  21  40
ENDBRANCH  16  17
ENDBRANCH   9  16
BRANCH  15  43
ATOM     43  O   UNL     1       8.750  11.816 -10.934  1.00  0.00    -0.385 OA
ATOM     44  H   UNL     1       8.210  12.459 -10.432  1.00  0.00    +0.211 HD
ENDBRANCH  15  43
ENDBRANCH   7   8
ENDBRANCH   1   7
BRANCH   2  45
ATOM     45  O   UNL     1       7.582   8.952 -15.861  1.00  0.00    -0.387 OA
ATOM     46  H   UNL     1       6.859   8.945 -15.200  1.00  0.00    +0.211 HD
ENDBRANCH   2  45
BRANCH   6  47
ATOM     47  O   UNL     1       7.643   9.414 -11.536  1.00  0.00    -0.385 OA
ATOM     48  H   UNL     1       7.174   8.737 -11.012  1.00  0.00    +0.211 HD
ENDBRANCH   6  47
BRANCH   3  49
ATOM     49  C   UNL     1      10.508   7.432 -15.952  1.00  0.00    +0.191 C 
BRANCH  49  50
ATOM     50  O   UNL     1      10.287   6.185 -16.605  1.00  0.00    -0.394 OA
ATOM     51  H   UNL     1       9.314   6.035 -16.595  1.00  0.00    +0.210 HD
ENDBRANCH  49  50
ENDBRANCH   3  49
BRANCH   5  52
ATOM     52  O   UNL     1       8.400   6.422 -12.362  1.00  0.00    -0.341 OA
BRANCH  52  53
ATOM     53  C   UNL     1       9.110   5.314 -12.920  1.00  0.00    +0.184 C 
ATOM     54  C   UNL     1       9.712   4.500 -11.787  1.00  0.00    +0.179 C 
ATOM     55  C   UNL     1       8.200   4.214 -13.479  1.00  0.00    +0.184 C 
ATOM     56  C   UNL     1       8.461   3.846 -11.196  1.00  0.00    +0.195 C 
ATOM     57  O   UNL     1      10.651   3.540 -12.321  1.00  0.00    -0.341 OA
ATOM     58  O   UNL     1       7.593   3.573 -12.325  1.00  0.00    -0.370 OA
ATOM     59  C   UNL     1       9.068   3.170 -14.193  1.00  0.00    +0.202 C 
ATOM     60  C   UNL     1      10.065   2.553 -13.178  1.00  0.00    +0.282 C 
BRANCH  59  61
ATOM     61  O   UNL     1       9.761   3.785 -15.292  1.00  0.00    -0.385 OA
ATOM     62  H   UNL     1       9.921   4.709 -15.017  1.00  0.00    +0.211 HD
ENDBRANCH  59  61
BRANCH  60  63
ATOM     63  O   UNL     1      11.122   1.940 -13.928  1.00  0.00    -0.341 OA
BRANCH  63  64
ATOM     64  C   UNL     1      12.383   1.894 -13.242  1.00  0.00    +0.186 C 
ATOM     65  C   UNL     1      13.321   0.987 -14.068  1.00  0.00    +0.177 C 
ATOM     66  C   UNL     1      13.053   3.273 -13.042  1.00  0.00    +0.202 C 
ATOM     67  C   UNL     1      13.735   1.694 -15.376  1.00  0.00    +0.178 C 
ATOM     68  C   UNL     1      13.489   3.868 -14.402  1.00  0.00    +0.279 C 
ATOM     69  O   UNL     1      14.344   2.963 -15.097  1.00  0.00    -0.342 OA
BRANCH  65  70
ATOM     70  O   UNL     1      14.475   0.621 -13.295  1.00  0.00    -0.387 OA
ATOM     71  H   UNL     1      14.596  -0.350 -13.408  1.00  0.00    +0.211 HD
ENDBRANCH  65  70
BRANCH  66  72
ATOM     72  O   UNL     1      14.193   3.091 -12.177  1.00  0.00    -0.385 OA
ATOM     73  H   UNL     1      14.490   2.166 -12.276  1.00  0.00    +0.211 HD
ENDBRANCH  66  72
BRANCH  67  74
ATOM     74  C   UNL     1      14.719   0.855 -16.212  1.00  0.00    +0.191 C 
BRANCH  74  75
ATOM     75  O   UNL     1      15.242  -0.277 -15.518  1.00  0.00    -0.394 OA
ATOM     76  H   UNL     1      14.950  -1.071 -16.013  1.00  0.00    +0.210 HD
ENDBRANCH  74  75
ENDBRANCH  67  74
BRANCH  68  77
ATOM     77  O   UNL     1      12.410   4.284 -15.221  1.00  0.00    -0.366 OA
ATOM     78  H   UNL     1      12.739   4.399 -16.132  1.00  0.00    +0.213 HD
ENDBRANCH  68  77
ENDBRANCH  63  64
ENDBRANCH  60  63
ENDBRANCH  52  53
ENDBRANCH   5  52
TORSDOF 27
ENDMDL
MODEL 7
REMARK VINA RESULT:    -6.474     29.387     33.433
REMARK INTER + INTRA:         -19.844
REMARK INTER:                 -16.537
REMARK INTRA:                  -3.307
REMARK UNBOUND:                -5.800
REMARK SMILES OC[C@@H]1O[C@H](O[C@H]2[C@@H]3OC[C@H]2O[C@@H](O[C@@H]2[C@H](O)[C@@H](O[C@@H]4[C@@H]5OC[C@H]4O[C@H](O[C@@H]4[C@@H](O)[C@H](O)O[C@@H](CO)[C@H]4O)[C@@H]5O)O[C@H](CO)[C@H]2O)[C@H]3O)[C@@H](O)[C@H](O[C@@H]2O[C@@H]3CO[C@H]([C@H]2O)[C@@H]3O)[C@H]1O
REMARK SMILES IDX 15 1 45 2 42 3 41 4 18 5 16 6 14 7 13 8 7 9 11 10 8 11 10 12
REMARK SMILES IDX 12 13 9 14 47 15 6 16 5 17 51 18 63 19 49 20 3 21 4 22 52 23
REMARK SMILES IDX 53 24 56 25 55 26 57 27 61 28 54 29 58 30 59 31 62 32 60 34
REMARK SMILES IDX 64 36 50 38 2 40 1 41 48 43 46 45 17 47 43 49 44 50 19 52
REMARK SMILES IDX 20 53 24 54 21 55 23 56 25 57 22 58 39 59 26 60 40 61 27 63
REMARK SMILES IDX 28 64 37 65 29 66 34 67 31 68 33 69 38 70 30 72 35 74 36 75
REMARK SMILES IDX 32 77
REMARK H PARENT 62 33 60 35 64 37 50 39 1 42 48 44 46 46 17 48 44 51 40 62
REMARK H PARENT 38 71 30 73 36 76 32 78
ROOT
ATOM      1  C   UNL     1      10.879   0.844  21.614  1.00  0.00    +0.186 C 
ATOM      2  C   UNL     1      11.433   1.687  22.782  1.00  0.00    +0.177 C 
ATOM      3  C   UNL     1      12.898   1.332  23.120  1.00  0.00    +0.178 C 
ATOM      4  O   UNL     1      13.248   0.030  22.648  1.00  0.00    -0.341 OA
ATOM      5  C   UNL     1      13.217  -0.064  21.222  1.00  0.00    +0.282 C 
ATOM      6  C   UNL     1      12.000   0.661  20.583  1.00  0.00    +0.202 C 
ENDROOT
BRANCH   1   7
ATOM      7  O   UNL     1      10.407  -0.483  21.952  1.00  0.00    -0.341 OA
BRANCH   7   8
ATOM      8  C   UNL     1       8.979  -0.597  22.014  1.00  0.00    +0.282 C 
ATOM      9  C   UNL     1       7.575  -3.048  22.799  1.00  0.00    +0.184 C 
ATOM     10  C   UNL     1       8.621  -2.352  23.660  1.00  0.00    +0.179 C 
ATOM     11  C   UNL     1       8.370  -3.021  21.495  1.00  0.00    +0.184 C 
ATOM     12  C   UNL     1       9.892  -3.093  23.241  1.00  0.00    +0.195 C 
ATOM     13  O   UNL     1       8.610  -0.939  23.360  1.00  0.00    -0.341 OA
ATOM     14  O   UNL     1       9.710  -3.441  21.849  1.00  0.00    -0.370 OA
ATOM     15  C   UNL     1       8.438  -1.588  20.947  1.00  0.00    +0.202 C 
BRANCH   9  16
ATOM     16  O   UNL     1       6.343  -2.353  22.667  1.00  0.00    -0.341 OA
BRANCH  16  17
ATOM     17  C   UNL     1       5.467  -2.861  21.643  1.00  0.00    +0.282 C 
ATOM     18  C   UNL     1       2.941  -3.071  21.202  1.00  0.00    +0.186 C 
ATOM     19  C   UNL     1       3.366  -4.441  20.656  1.00  0.00    +0.177 C 
ATOM     20  C   UNL     1       4.047  -2.392  22.025  1.00  0.00    +0.202 C 
ATOM     21  C   UNL     1       4.473  -5.092  21.487  1.00  0.00    +0.178 C 
ATOM     22  O   UNL     1       5.641  -4.270  21.563  1.00  0.00    -0.341 OA
BRANCH  18  23
ATOM     23  O   UNL     1       1.772  -3.283  22.026  1.00  0.00    -0.341 OA
BRANCH  23  24
ATOM     24  C   UNL     1       0.652  -2.463  21.668  1.00  0.00    +0.282 C 
ATOM     25  C   UNL     1       1.211  -1.413  24.366  1.00  0.00    +0.195 C 
ATOM     26  C   UNL     1       0.642  -0.578  23.220  1.00  0.00    +0.178 C 
ATOM     27  O   UNL     1       0.253  -2.472  24.602  1.00  0.00    -0.370 OA
ATOM     28  C   UNL     1      -0.845  -0.727  23.476  1.00  0.00    +0.177 C 
ATOM     29  O   UNL     1       0.965  -1.080  21.910  1.00  0.00    -0.341 OA
ATOM     30  C   UNL     1      -0.858  -2.234  23.709  1.00  0.00    +0.183 C 
ATOM     31  C   UNL     1      -0.630  -2.976  22.384  1.00  0.00    +0.202 C 
BRANCH  28  32
ATOM     32  O   UNL     1      -1.659  -0.305  22.390  1.00  0.00    -0.387 OA
ATOM     33  H   UNL     1      -2.565  -0.621  22.565  1.00  0.00    +0.211 HD
ENDBRANCH  28  32
BRANCH  31  34
ATOM     34  O   UNL     1      -1.779  -2.818  21.532  1.00  0.00    -0.385 OA
ATOM     35  H   UNL     1      -2.271  -3.668  21.568  1.00  0.00    +0.211 HD
ENDBRANCH  31  34
ENDBRANCH  23  24
ENDBRANCH  18  23
BRANCH  19  36
ATOM     36  O   UNL     1       3.858  -4.238  19.318  1.00  0.00    -0.387 OA
ATOM     37  H   UNL     1       4.727  -3.802  19.380  1.00  0.00    +0.211 HD
ENDBRANCH  19  36
BRANCH  20  38
ATOM     38  O   UNL     1       3.939  -0.960  21.889  1.00  0.00    -0.385 OA
ATOM     39  H   UNL     1       3.547  -0.637  22.727  1.00  0.00    +0.211 HD
ENDBRANCH  20  38
BRANCH  21  40
ATOM     40  C   UNL     1       4.055  -5.538  22.895  1.00  0.00    +0.191 C 
BRANCH  40  41
ATOM     41  O   UNL     1       2.732  -6.091  22.843  1.00  0.00    -0.394 OA
ATOM     42  H   UNL     1       2.861  -7.040  22.614  1.00  0.00    +0.210 HD
ENDBRANCH  40  41
ENDBRANCH  21  40
ENDBRANCH  16  17
ENDBRANCH   9  16
BRANCH  15  43
ATOM     43  O   UNL     1       9.233  -1.549  19.754  1.00  0.00    -0.385 OA
ATOM     44  H   UNL     1       9.665  -2.426  19.715  1.00  0.00    +0.211 HD
ENDBRANCH  15  43
ENDBRANCH   7   8
ENDBRANCH   1   7
BRANCH   2  45
ATOM     45  O   UNL     1      11.363   3.079  22.433  1.00  0.00    -0.387 OA
ATOM     46  H   UNL     1      12.229   3.299  22.031  1.00  0.00    +0.211 HD
ENDBRANCH   2  45
BRANCH   6  47
ATOM     47  O   UNL     1      11.507  -0.090  19.456  1.00  0.00    -0.385 OA
ATOM     48  H   UNL     1      11.595  -1.029  19.707  1.00  0.00    +0.211 HD
ENDBRANCH   6  47
BRANCH   3  49
ATOM     49  C   UNL     1      13.136   1.379  24.636  1.00  0.00    +0.191 C 
BRANCH  49  50
ATOM     50  O   UNL     1      12.144   0.638  25.342  1.00  0.00    -0.394 OA
ATOM     51  H   UNL     1      11.707   1.272  25.955  1.00  0.00    +0.210 HD
ENDBRANCH  49  50
ENDBRANCH   3  49
BRANCH   5  52
ATOM     52  O   UNL     1      14.416   0.470  20.650  1.00  0.00    -0.341 OA
BRANCH  52  53
ATOM     53  C   UNL     1      14.733  -0.080  19.368  1.00  0.00    +0.184 C 
ATOM     54  C   UNL     1      16.022   0.553  18.871  1.00  0.00    +0.179 C 
ATOM     55  C   UNL     1      15.240  -1.526  19.422  1.00  0.00    +0.184 C 
ATOM     56  C   UNL     1      17.050  -0.109  19.793  1.00  0.00    +0.195 C 
ATOM     57  O   UNL     1      16.221   0.224  17.477  1.00  0.00    -0.341 OA
ATOM     58  O   UNL     1      16.570  -1.460  20.007  1.00  0.00    -0.370 OA
ATOM     59  C   UNL     1      15.383  -2.053  17.990  1.00  0.00    +0.202 C 
ATOM     60  C   UNL     1      16.402  -1.174  17.219  1.00  0.00    +0.282 C 
BRANCH  59  61
ATOM     61  O   UNL     1      14.101  -2.049  17.341  1.00  0.00    -0.385 OA
ATOM     62  H   UNL     1      13.544  -1.438  17.863  1.00  0.00    +0.211 HD
ENDBRANCH  59  61
BRANCH  60  63
ATOM     63  O   UNL     1      16.190  -1.392  15.818  1.00  0.00    -0.341 OA
BRANCH  63  64
ATOM     64  C   UNL     1      17.378  -1.285  15.017  1.00  0.00    +0.186 C 
ATOM     65  C   UNL     1      17.358  -2.455  14.010  1.00  0.00    +0.177 C 
ATOM     66  C   UNL     1      17.511   0.049  14.248  1.00  0.00    +0.202 C 
ATOM     67  C   UNL     1      16.270  -2.223  12.940  1.00  0.00    +0.178 C 
ATOM     68  C   UNL     1      16.419   0.158  13.156  1.00  0.00    +0.279 C 
ATOM     69  O   UNL     1      16.470  -0.964  12.279  1.00  0.00    -0.342 OA
BRANCH  65  70
ATOM     70  O   UNL     1      18.649  -2.618  13.403  1.00  0.00    -0.387 OA
ATOM     71  H   UNL     1      19.311  -2.280  14.048  1.00  0.00    +0.211 HD
ENDBRANCH  65  70
BRANCH  66  72
ATOM     72  O   UNL     1      18.826   0.090  13.657  1.00  0.00    -0.385 OA
ATOM     73  H   UNL     1      18.745  -0.236  12.740  1.00  0.00    +0.211 HD
ENDBRANCH  66  72
BRANCH  67  74
ATOM     74  C   UNL     1      16.246  -3.334  11.875  1.00  0.00    +0.191 C 
BRANCH  74  75
ATOM     75  O   UNL     1      17.171  -3.127  10.808  1.00  0.00    -0.394 OA
ATOM     76  H   UNL     1      17.064  -3.882  10.191  1.00  0.00    +0.210 HD
ENDBRANCH  74  75
ENDBRANCH  67  74
BRANCH  68  77
ATOM     77  O   UNL     1      15.111   0.349  13.668  1.00  0.00    -0.366 OA
ATOM     78  H   UNL     1      14.839  -0.464  14.134  1.00  0.00    +0.213 HD
ENDBRANCH  68  77
ENDBRANCH  63  64
ENDBRANCH  60  63
ENDBRANCH  52  53
ENDBRANCH   5  52
TORSDOF 27
ENDMDL
MODEL 8
REMARK VINA RESULT:    -6.335     17.879     23.774
REMARK INTER + INTRA:         -19.543
REMARK INTER:                 -16.169
REMARK INTRA:                  -3.374
REMARK UNBOUND:                -5.800
REMARK SMILES OC[C@@H]1O[C@H](O[C@H]2[C@@H]3OC[C@H]2O[C@@H](O[C@@H]2[C@H](O)[C@@H](O[C@@H]4[C@@H]5OC[C@H]4O[C@H](O[C@@H]4[C@@H](O)[C@H](O)O[C@@H](CO)[C@H]4O)[C@@H]5O)O[C@H](CO)[C@H]2O)[C@H]3O)[C@@H](O)[C@H](O[C@@H]2O[C@@H]3CO[C@H]([C@H]2O)[C@@H]3O)[C@H]1O
REMARK SMILES IDX 15 1 45 2 42 3 41 4 18 5 16 6 14 7 13 8 7 9 11 10 8 11 10 12
REMARK SMILES IDX 12 13 9 14 47 15 6 16 5 17 51 18 63 19 49 20 3 21 4 22 52 23
REMARK SMILES IDX 53 24 56 25 55 26 57 27 61 28 54 29 58 30 59 31 62 32 60 34
REMARK SMILES IDX 64 36 50 38 2 40 1 41 48 43 46 45 17 47 43 49 44 50 19 52
REMARK SMILES IDX 20 53 24 54 21 55 23 56 25 57 22 58 39 59 26 60 40 61 27 63
REMARK SMILES IDX 28 64 37 65 29 66 34 67 31 68 33 69 38 70 30 72 35 74 36 75
REMARK SMILES IDX 32 77
REMARK H PARENT 62 33 60 35 64 37 50 39 1 42 48 44 46 46 17 48 44 51 40 62
REMARK H PARENT 38 71 30 73 36 76 32 78
ROOT
ATOM      1  C   UNL     1      -4.812  20.206  -8.090  1.00  0.00    +0.186 C 
ATOM      2  C   UNL     1      -5.197  21.208  -9.199  1.00  0.00    +0.177 C 
ATOM      3  C   UNL     1      -6.263  22.222  -8.730  1.00  0.00    +0.178 C 
ATOM      4  O   UNL     1      -6.994  21.737  -7.603  1.00  0.00    -0.341 OA
ATOM      5  C   UNL     1      -6.174  21.577  -6.443  1.00  0.00    +0.282 C 
ATOM      6  C   UNL     1      -4.781  20.960  -6.754  1.00  0.00    +0.202 C 
ENDROOT
BRANCH   1   7
ATOM      7  O   UNL     1      -5.704  19.080  -7.909  1.00  0.00    -0.341 OA
BRANCH   7   8
ATOM      8  C   UNL     1      -5.082  17.804  -8.108  1.00  0.00    +0.282 C 
ATOM      9  C   UNL     1      -5.809  15.958 -10.267  1.00  0.00    +0.184 C 
ATOM     10  C   UNL     1      -5.367  17.398 -10.490  1.00  0.00    +0.179 C 
ATOM     11  C   UNL     1      -6.816  16.249  -9.156  1.00  0.00    +0.184 C 
ATOM     12  C   UNL     1      -6.714  18.122 -10.517  1.00  0.00    +0.195 C 
ATOM     13  O   UNL     1      -4.485  17.789  -9.414  1.00  0.00    -0.341 OA
ATOM     14  O   UNL     1      -7.577  17.394  -9.612  1.00  0.00    -0.370 OA
ATOM     15  C   UNL     1      -6.080  16.638  -7.864  1.00  0.00    +0.202 C 
BRANCH   9  16
ATOM     16  O   UNL     1      -4.788  15.076  -9.821  1.00  0.00    -0.341 OA
BRANCH  16  17
ATOM     17  C   UNL     1      -4.253  14.206 -10.837  1.00  0.00    +0.282 C 
ATOM     18  C   UNL     1      -2.203  12.691 -11.186  1.00  0.00    +0.186 C 
ATOM     19  C   UNL     1      -2.274  13.283 -12.602  1.00  0.00    +0.177 C 
ATOM     20  C   UNL     1      -3.074  13.459 -10.179  1.00  0.00    +0.202 C 
ATOM     21  C   UNL     1      -2.656  14.764 -12.605  1.00  0.00    +0.178 C 
ATOM     22  O   UNL     1      -3.917  14.994 -11.971  1.00  0.00    -0.341 OA
BRANCH  18  23
ATOM     23  O   UNL     1      -0.818  12.731 -10.775  1.00  0.00    -0.341 OA
BRANCH  23  24
ATOM     24  C   UNL     1      -0.258  11.441 -10.494  1.00  0.00    +0.282 C 
ATOM     25  C   UNL     1      -0.438  12.526  -7.759  1.00  0.00    +0.195 C 
ATOM     26  C   UNL     1      -0.579  11.045  -8.106  1.00  0.00    +0.178 C 
ATOM     27  O   UNL     1       0.887  12.913  -8.194  1.00  0.00    -0.370 OA
ATOM     28  C   UNL     1       0.853  10.579  -7.935  1.00  0.00    +0.177 C 
ATOM     29  O   UNL     1      -1.017  10.797  -9.455  1.00  0.00    -0.341 OA
ATOM     30  C   UNL     1       1.526  11.717  -8.694  1.00  0.00    +0.183 C 
ATOM     31  C   UNL     1       1.263  11.578 -10.201  1.00  0.00    +0.202 C 
BRANCH  28  32
ATOM     32  O   UNL     1       1.107   9.292  -8.484  1.00  0.00    -0.387 OA
ATOM     33  H   UNL     1       1.522   9.424  -9.358  1.00  0.00    +0.211 HD
ENDBRANCH  28  32
BRANCH  31  34
ATOM     34  O   UNL     1       1.979  10.441 -10.718  1.00  0.00    -0.385 OA
ATOM     35  H   UNL     1       2.920  10.564 -10.462  1.00  0.00    +0.211 HD
ENDBRANCH  31  34
ENDBRANCH  23  24
ENDBRANCH  18  23
BRANCH  19  36
ATOM     36  O   UNL     1      -3.279  12.550 -13.327  1.00  0.00    -0.387 OA
ATOM     37  H   UNL     1      -3.839  12.086 -12.678  1.00  0.00    +0.211 HD
ENDBRANCH  19  36
BRANCH  20  38
ATOM     38  O   UNL     1      -3.557  12.550  -9.169  1.00  0.00    -0.385 OA
ATOM     39  H   UNL     1      -3.173  11.675  -9.385  1.00  0.00    +0.211 HD
ENDBRANCH  20  38
BRANCH  21  40
ATOM     40  C   UNL     1      -1.597  15.712 -12.023  1.00  0.00    +0.191 C 
BRANCH  40  41
ATOM     41  O   UNL     1      -2.218  16.591 -11.074  1.00  0.00    -0.394 OA
ATOM     42  H   UNL     1      -1.472  17.051 -10.626  1.00  0.00    +0.210 HD
ENDBRANCH  40  41
ENDBRANCH  21  40
ENDBRANCH  16  17
ENDBRANCH   9  16
BRANCH  15  43
ATOM     43  O   UNL     1      -7.022  16.969  -6.836  1.00  0.00    -0.385 OA
ATOM     44  H   UNL     1      -7.136  16.140  -6.328  1.00  0.00    +0.211 HD
ENDBRANCH  15  43
ENDBRANCH   7   8
ENDBRANCH   1   7
BRANCH   2  45
ATOM     45  O   UNL     1      -4.024  21.928  -9.611  1.00  0.00    -0.387 OA
ATOM     46  H   UNL     1      -4.292  22.869  -9.667  1.00  0.00    +0.211 HD
ENDBRANCH   2  45
BRANCH   6  47
ATOM     47  O   UNL     1      -4.386  20.063  -5.698  1.00  0.00    -0.385 OA
ATOM     48  H   UNL     1      -3.959  20.624  -5.022  1.00  0.00    +0.211 HD
ENDBRANCH   6  47
BRANCH   3  49
ATOM     49  C   UNL     1      -7.257  22.530  -9.858  1.00  0.00    +0.191 C 
BRANCH  49  50
ATOM     50  O   UNL     1      -7.204  23.902 -10.240  1.00  0.00    -0.394 OA
ATOM     51  H   UNL     1      -6.392  24.274  -9.827  1.00  0.00    +0.210 HD
ENDBRANCH  49  50
ENDBRANCH   3  49
BRANCH   5  52
ATOM     52  O   UNL     1      -5.978  22.831  -5.780  1.00  0.00    -0.341 OA
BRANCH  52  53
ATOM     53  C   UNL     1      -4.661  22.998  -5.248  1.00  0.00    +0.184 C 
ATOM     54  C   UNL     1      -4.224  24.436  -5.467  1.00  0.00    +0.179 C 
ATOM     55  C   UNL     1      -4.610  23.016  -3.716  1.00  0.00    +0.184 C 
ATOM     56  C   UNL     1      -5.103  25.170  -4.450  1.00  0.00    +0.195 C 
ATOM     57  O   UNL     1      -2.812  24.566  -5.189  1.00  0.00    -0.341 OA
ATOM     58  O   UNL     1      -5.210  24.278  -3.313  1.00  0.00    -0.370 OA
ATOM     59  C   UNL     1      -3.143  23.030  -3.270  1.00  0.00    +0.202 C 
ATOM     60  C   UNL     1      -2.450  24.301  -3.828  1.00  0.00    +0.282 C 
BRANCH  59  61
ATOM     61  O   UNL     1      -2.485  21.838  -3.729  1.00  0.00    -0.385 OA
ATOM     62  H   UNL     1      -2.049  22.086  -4.568  1.00  0.00    +0.211 HD
ENDBRANCH  59  61
BRANCH  60  63
ATOM     63  O   UNL     1      -1.036  24.076  -3.786  1.00  0.00    -0.341 OA
BRANCH  63  64
ATOM     64  C   UNL     1      -0.244  25.245  -4.055  1.00  0.00    +0.186 C 
ATOM     65  C   UNL     1       0.780  25.378  -2.907  1.00  0.00    +0.177 C 
ATOM     66  C   UNL     1       0.506  25.211  -5.406  1.00  0.00    +0.202 C 
ATOM     67  C   UNL     1       1.854  24.275  -3.015  1.00  0.00    +0.178 C 
ATOM     68  C   UNL     1       1.603  24.119  -5.392  1.00  0.00    +0.279 C 
ATOM     69  O   UNL     1       2.496  24.316  -4.298  1.00  0.00    -0.342 OA
BRANCH  65  70
ATOM     70  O   UNL     1       1.381  26.682  -2.918  1.00  0.00    -0.387 OA
ATOM     71  H   UNL     1       2.026  26.691  -3.661  1.00  0.00    +0.211 HD
ENDBRANCH  65  70
BRANCH  66  72
ATOM     72  O   UNL     1       1.088  26.513  -5.623  1.00  0.00    -0.385 OA
ATOM     73  H   UNL     1       0.855  27.069  -4.855  1.00  0.00    +0.211 HD
ENDBRANCH  66  72
BRANCH  67  74
ATOM     74  C   UNL     1       2.935  24.396  -1.926  1.00  0.00    +0.191 C 
BRANCH  74  75
ATOM     75  O   UNL     1       2.627  25.358  -0.917  1.00  0.00    -0.394 OA
ATOM     76  H   UNL     1       1.785  25.073  -0.503  1.00  0.00    +0.210 HD
ENDBRANCH  74  75
ENDBRANCH  67  74
BRANCH  68  77
ATOM     77  O   UNL     1       1.098  22.795  -5.408  1.00  0.00    -0.366 OA
ATOM     78  H   UNL     1       0.139  22.828  -5.230  1.00  0.00    +0.213 HD
ENDBRANCH  68  77
ENDBRANCH  63  64
ENDBRANCH  60  63
ENDBRANCH  52  53
ENDBRANCH   5  52
TORSDOF 27
ENDMDL
MODEL 9
REMARK VINA RESULT:    -6.296      8.317     13.808
REMARK INTER + INTRA:         -19.457
REMARK INTER:                 -15.881
REMARK INTRA:                  -3.576
REMARK UNBOUND:                -5.800
REMARK SMILES OC[C@@H]1O[C@H](O[C@H]2[C@@H]3OC[C@H]2O[C@@H](O[C@@H]2[C@H](O)[C@@H](O[C@@H]4[C@@H]5OC[C@H]4O[C@H](O[C@@H]4[C@@H](O)[C@H](O)O[C@@H](CO)[C@H]4O)[C@@H]5O)O[C@H](CO)[C@H]2O)[C@H]3O)[C@@H](O)[C@H](O[C@@H]2O[C@@H]3CO[C@H]([C@H]2O)[C@@H]3O)[C@H]1O
REMARK SMILES IDX 15 1 45 2 42 3 41 4 18 5 16 6 14 7 13 8 7 9 11 10 8 11 10 12
REMARK SMILES IDX 12 13 9 14 47 15 6 16 5 17 51 18 63 19 49 20 3 21 4 22 52 23
REMARK SMILES IDX 53 24 56 25 55 26 57 27 61 28 54 29 58 30 59 31 62 32 60 34
REMARK SMILES IDX 64 36 50 38 2 40 1 41 48 43 46 45 17 47 43 49 44 50 19 52
REMARK SMILES IDX 20 53 24 54 21 55 23 56 25 57 22 58 39 59 26 60 40 61 27 63
REMARK SMILES IDX 28 64 37 65 29 66 34 67 31 68 33 69 38 70 30 72 35 74 36 75
REMARK SMILES IDX 32 77
REMARK H PARENT 62 33 60 35 64 37 50 39 1 42 48 44 46 46 17 48 44 51 40 62
REMARK H PARENT 38 71 30 73 36 76 32 78
ROOT
ATOM      1  C   UNL     1       9.435  13.599 -12.464  1.00  0.00    +0.186 C 
ATOM      2  C   UNL     1      10.373  13.186 -11.311  1.00  0.00    +0.177 C 
ATOM      3  C   UNL     1      11.660  14.038 -11.266  1.00  0.00    +0.178 C 
ATOM      4  O   UNL     1      11.931  14.652 -12.527  1.00  0.00    -0.341 OA
ATOM      5  C   UNL     1      10.931  15.603 -12.900  1.00  0.00    +0.282 C 
ATOM      6  C   UNL     1       9.483  15.127 -12.596  1.00  0.00    +0.202 C 
ENDROOT
BRANCH   1   7
ATOM      7  O   UNL     1       9.754  13.061 -13.770  1.00  0.00    -0.341 OA
BRANCH   7   8
ATOM      8  C   UNL     1      10.170  11.690 -13.752  1.00  0.00    +0.282 C 
ATOM      9  C   UNL     1      10.630  10.096 -16.170  1.00  0.00    +0.184 C 
ATOM     10  C   UNL     1      11.326  11.419 -15.876  1.00  0.00    +0.179 C 
ATOM     11  C   UNL     1       9.215  10.559 -15.832  1.00  0.00    +0.184 C 
ATOM     12  C   UNL     1      10.395  12.407 -16.581  1.00  0.00    +0.195 C 
ATOM     13  O   UNL     1      11.425  11.588 -14.444  1.00  0.00    -0.341 OA
ATOM     14  O   UNL     1       9.065  11.850 -16.473  1.00  0.00    -0.370 OA
ATOM     15  C   UNL     1       9.068  10.751 -14.315  1.00  0.00    +0.202 C 
BRANCH   9  16
ATOM     16  O   UNL     1      11.029   9.009 -15.345  1.00  0.00    -0.341 OA
BRANCH  16  17
ATOM     17  C   UNL     1      10.704   7.705 -15.863  1.00  0.00    +0.282 C 
ATOM     18  C   UNL     1       9.880   5.434 -14.978  1.00  0.00    +0.186 C 
ATOM     19  C   UNL     1      10.902   4.907 -15.996  1.00  0.00    +0.177 C 
ATOM     20  C   UNL     1      10.043   6.937 -14.700  1.00  0.00    +0.202 C 
ATOM     21  C   UNL     1      12.172   5.756 -16.053  1.00  0.00    +0.178 C 
ATOM     22  O   UNL     1      11.893   7.120 -16.380  1.00  0.00    -0.341 OA
BRANCH  18  23
ATOM     23  O   UNL     1      10.066   4.683 -13.757  1.00  0.00    -0.341 OA
BRANCH  23  24
ATOM     24  C   UNL     1       8.851   4.430 -13.040  1.00  0.00    +0.282 C 
ATOM     25  C   UNL     1      10.424   5.751 -10.926  1.00  0.00    +0.195 C 
ATOM     26  C   UNL     1       8.905   5.846 -11.052  1.00  0.00    +0.178 C 
ATOM     27  O   UNL     1      10.723   4.346 -10.748  1.00  0.00    -0.370 OA
ATOM     28  C   UNL     1       8.477   4.699 -10.157  1.00  0.00    +0.177 C 
ATOM     29  O   UNL     1       8.411   5.634 -12.387  1.00  0.00    -0.341 OA
ATOM     30  C   UNL     1       9.455   3.656 -10.687  1.00  0.00    +0.183 C 
ATOM     31  C   UNL     1       9.038   3.208 -12.095  1.00  0.00    +0.202 C 
BRANCH  28  32
ATOM     32  O   UNL     1       7.111   4.336 -10.304  1.00  0.00    -0.387 OA
ATOM     33  H   UNL     1       6.723   4.292  -9.410  1.00  0.00    +0.211 HD
ENDBRANCH  28  32
BRANCH  31  34
ATOM     34  O   UNL     1       7.825   2.438 -12.024  1.00  0.00    -0.385 OA
ATOM     35  H   UNL     1       7.410   2.651 -11.159  1.00  0.00    +0.211 HD
ENDBRANCH  31  34
ENDBRANCH  23  24
ENDBRANCH  18  23
BRANCH  19  36
ATOM     36  O   UNL     1      10.274   4.936 -17.292  1.00  0.00    -0.387 OA
ATOM     37  H   UNL     1      10.750   5.585 -17.841  1.00  0.00    +0.211 HD
ENDBRANCH  19  36
BRANCH  20  38
ATOM     38  O   UNL     1       8.757   7.511 -14.387  1.00  0.00    -0.385 OA
ATOM     39  H   UNL     1       8.090   6.929 -14.807  1.00  0.00    +0.211 HD
ENDBRANCH  20  38
BRANCH  21  40
ATOM     40  C   UNL     1      13.057   5.689 -14.800  1.00  0.00    +0.191 C 
BRANCH  40  41
ATOM     41  O   UNL     1      13.044   4.351 -14.282  1.00  0.00    -0.394 OA
ATOM     42  H   UNL     1      13.611   4.384 -13.477  1.00  0.00    +0.210 HD
ENDBRANCH  40  41
ENDBRANCH  21  40
ENDBRANCH  16  17
ENDBRANCH   9  16
BRANCH  15  43
ATOM     43  O   UNL     1       7.758  11.241 -14.000  1.00  0.00    -0.385 OA
ATOM     44  H   UNL     1       7.905  11.905 -13.296  1.00  0.00    +0.211 HD
ENDBRANCH  15  43
ENDBRANCH   7   8
ENDBRANCH   1   7
BRANCH   2  45
ATOM     45  O   UNL     1       9.677  13.333 -10.062  1.00  0.00    -0.387 OA
ATOM     46  H   UNL     1      10.224  13.938  -9.519  1.00  0.00    +0.211 HD
ENDBRANCH   2  45
BRANCH   6  47
ATOM     47  O   UNL     1       8.587  15.555 -13.640  1.00  0.00    -0.385 OA
ATOM     48  H   UNL     1       7.843  15.994 -13.185  1.00  0.00    +0.211 HD
ENDBRANCH   6  47
BRANCH   3  49
ATOM     49  C   UNL     1      12.870  13.179 -10.874  1.00  0.00    +0.191 C 
BRANCH  49  50
ATOM     50  O   UNL     1      12.467  11.980 -10.217  1.00  0.00    -0.394 OA
ATOM     51  H   UNL     1      12.763  11.236 -10.789  1.00  0.00    +0.210 HD
ENDBRANCH  49  50
ENDBRANCH   3  49
BRANCH   5  52
ATOM     52  O   UNL     1      11.146  16.856 -12.239  1.00  0.00    -0.341 OA
BRANCH  52  53
ATOM     53  C   UNL     1      10.884  17.992 -13.067  1.00  0.00    +0.184 C 
ATOM     54  C   UNL     1       9.646  18.701 -12.546  1.00  0.00    +0.179 C 
ATOM     55  C   UNL     1      11.867  19.150 -12.858  1.00  0.00    +0.184 C 
ATOM     56  C   UNL     1      10.185  19.329 -11.258  1.00  0.00    +0.195 C 
ATOM     57  O   UNL     1       9.203  19.683 -13.509  1.00  0.00    -0.341 OA
ATOM     58  O   UNL     1      11.553  19.708 -11.553  1.00  0.00    -0.370 OA
ATOM     59  C   UNL     1      11.588  20.231 -13.909  1.00  0.00    +0.202 C 
ATOM     60  C   UNL     1      10.135  20.746 -13.741  1.00  0.00    +0.282 C 
BRANCH  59  61
ATOM     61  O   UNL     1      11.798  19.693 -15.226  1.00  0.00    -0.385 OA
ATOM     62  H   UNL     1      12.710  19.949 -15.471  1.00  0.00    +0.211 HD
ENDBRANCH  59  61
BRANCH  60  63
ATOM     63  O   UNL     1       9.762  21.397 -14.963  1.00  0.00    -0.341 OA
BRANCH  63  64
ATOM     64  C   UNL     1       9.518  22.806 -14.831  1.00  0.00    +0.186 C 
ATOM     65  C   UNL     1      10.730  23.540 -15.447  1.00  0.00    +0.177 C 
ATOM     66  C   UNL     1       8.222  23.297 -15.516  1.00  0.00    +0.202 C 
ATOM     67  C   UNL     1      10.721  23.392 -16.983  1.00  0.00    +0.178 C 
ATOM     68  C   UNL     1       8.338  23.169 -17.054  1.00  0.00    +0.279 C 
ATOM     69  O   UNL     1       9.484  23.869 -17.533  1.00  0.00    -0.342 OA
BRANCH  65  70
ATOM     70  O   UNL     1      10.727  24.924 -15.065  1.00  0.00    -0.387 OA
ATOM     71  H   UNL     1      10.673  24.948 -14.083  1.00  0.00    +0.211 HD
ENDBRANCH  65  70
BRANCH  66  72
ATOM     72  O   UNL     1       8.013  24.672 -15.134  1.00  0.00    -0.385 OA
ATOM     73  H   UNL     1       7.560  25.116 -15.877  1.00  0.00    +0.211 HD
ENDBRANCH  66  72
BRANCH  67  74
ATOM     74  C   UNL     1      11.878  24.155 -17.654  1.00  0.00    +0.191 C 
BRANCH  74  75
ATOM     75  O   UNL     1      12.923  24.520 -16.754  1.00  0.00    -0.394 OA
ATOM     76  H   UNL     1      12.557  25.210 -16.161  1.00  0.00    +0.210 HD
ENDBRANCH  74  75
ENDBRANCH  67  74
BRANCH  68  77
ATOM     77  O   UNL     1       8.321  21.832 -17.523  1.00  0.00    -0.366 OA
ATOM     78  H   UNL     1       7.797  21.799 -18.345  1.00  0.00    +0.213 HD
ENDBRANCH  68  77
ENDBRANCH  63  64
ENDBRANCH  60  63
ENDBRANCH  52  53
ENDBRANCH   5  52
TORSDOF 27
ENDMDL
