MODEL 1
REMARK VINA RESULT:    -9.193      0.000      0.000
REMARK INTER + INTRA:         -23.628
REMARK INTER:                 -19.942
REMARK INTRA:                  -3.686
REMARK UNBOUND:                -3.686
REMARK SMILES OC[C@@H]1O[C@H](O[C@H]2[C@@H]3OC[C@H]2O[C@@H](O[C@@H]2[C@H](O)[C@@H](O[C@@H]4[C@@H]5OC[C@H]4O[C@H](O[C@@H]4[C@@H](O)[C@H](O)O[C@@H](CO)[C@H]4O)[C@@H]5O)O[C@H](CO)[C@H]2O)[C@H]3O)[C@@H](O)[C@H](O[C@@H]2O[C@@H]3CO[C@H]([C@H]2O)[C@@H]3O)[C@H]1O
REMARK SMILES IDX 15 1 45 2 42 3 41 4 18 5 16 6 14 7 13 8 7 9 11 10 8 11 10 12
REMARK SMILES IDX 12 13 9 14 47 15 6 16 5 17 51 18 63 19 49 20 3 21 4 22 52 23
REMARK SMILES IDX 53 24 56 25 55 26 57 27 61 28 54 29 58 30 59 31 62 32 60 34
REMARK SMILES IDX 64 36 50 38 2 40 1 41 48 43 46 45 17 47 43 49 44 50 19 52
REMARK SMILES IDX 20 53 24 54 21 55 23 56 25 57 22 58 39 59 26 60 40 61 27 63
REMARK SMILES IDX 28 64 37 65 29 66 34 67 31 68 33 69 38 70 30 72 35 74 36 75
REMARK SMILES IDX 32 77
REMARK H PARENT 62 33 60 35 64 37 50 39 1 42 48 44 46 46 17 48 44 51 40 62
REMARK H PARENT 38 71 30 73 36 76 32 78
ROOT
ATOM      1  C   UNL     1       3.792  10.393 -10.010  1.00  0.00    +0.186 C 
ATOM      2  C   UNL     1       5.326  10.553  -9.954  1.00  0.00    +0.177 C 
ATOM      3  C   UNL     1       6.027   9.298  -9.387  1.00  0.00    +0.178 C 
ATOM      4  O   UNL     1       5.133   8.501  -8.609  1.00  0.00    -0.341 OA
ATOM      5  C   UNL     1       4.070   7.948  -9.388  1.00  0.00    +0.282 C 
ATOM      6  C   UNL     1       3.476   8.949 -10.419  1.00  0.00    +0.202 C 
ENDROOT
BRANCH   1   7
ATOM      7  O   UNL     1       3.079  10.639  -8.774  1.00  0.00    -0.341 OA
BRANCH   7   8
ATOM      8  C   UNL     1       1.854   9.906  -8.650  1.00  0.00    +0.282 C 
ATOM      9  C   UNL     1      -0.427  10.808  -7.044  1.00  0.00    +0.184 C 
ATOM     10  C   UNL     1       0.208  11.629  -8.158  1.00  0.00    +0.179 C 
ATOM     11  C   UNL     1       0.874  10.414  -6.347  1.00  0.00    +0.184 C 
ATOM     12  C   UNL     1       1.221  12.462  -7.373  1.00  0.00    +0.195 C 
ATOM     13  O   UNL     1       0.781  10.730  -9.133  1.00  0.00    -0.341 OA
ATOM     14  O   UNL     1       1.658  11.629  -6.274  1.00  0.00    -0.370 OA
ATOM     15  C   UNL     1       1.641   9.391  -7.199  1.00  0.00    +0.202 C 
BRANCH   9  16
ATOM     16  O   UNL     1      -1.150   9.662  -7.475  1.00  0.00    -0.341 OA
BRANCH  16  17
ATOM     17  C   UNL     1      -1.261   8.612  -6.496  1.00  0.00    +0.282 C 
ATOM     18  C   UNL     1      -2.081   6.176  -6.373  1.00  0.00    +0.186 C 
ATOM     19  C   UNL     1      -2.630   6.654  -5.021  1.00  0.00    +0.177 C 
ATOM     20  C   UNL     1      -1.645   7.339  -7.279  1.00  0.00    +0.202 C 
ATOM     21  C   UNL     1      -3.183   8.079  -5.077  1.00  0.00    +0.178 C 
ATOM     22  O   UNL     1      -2.195   9.021  -5.505  1.00  0.00    -0.341 OA
BRANCH  18  23
ATOM     23  O   UNL     1      -3.128   5.415  -7.015  1.00  0.00    -0.341 OA
BRANCH  23  24
ATOM     24  C   UNL     1      -2.701   4.137  -7.504  1.00  0.00    +0.282 C 
ATOM     25  C   UNL     1      -4.392   3.280  -5.247  1.00  0.00    +0.195 C 
ATOM     26  C   UNL     1      -4.207   2.478  -6.534  1.00  0.00    +0.178 C 
ATOM     27  O   UNL     1      -3.074   3.401  -4.661  1.00  0.00    -0.370 OA
ATOM     28  C   UNL     1      -3.052   1.578  -6.141  1.00  0.00    +0.177 C 
ATOM     29  O   UNL     1      -3.840   3.275  -7.675  1.00  0.00    -0.341 OA
ATOM     30  C   UNL     1      -2.173   2.649  -5.502  1.00  0.00    +0.183 C 
ATOM     31  C   UNL     1      -1.584   3.565  -6.585  1.00  0.00    +0.202 C 
BRANCH  28  32
ATOM     32  O   UNL     1      -2.443   0.914  -7.241  1.00  0.00    -0.387 OA
ATOM     33  H   UNL     1      -1.653   0.453  -6.901  1.00  0.00    +0.211 HD
ENDBRANCH  28  32
BRANCH  31  34
ATOM     34  O   UNL     1      -0.614   2.841  -7.363  1.00  0.00    -0.385 OA
ATOM     35  H   UNL     1       0.193   3.400  -7.393  1.00  0.00    +0.211 HD
ENDBRANCH  31  34
ENDBRANCH  23  24
ENDBRANCH  18  23
BRANCH  19  36
ATOM     36  O   UNL     1      -1.543   6.621  -4.077  1.00  0.00    -0.387 OA
ATOM     37  H   UNL     1      -1.848   6.144  -3.284  1.00  0.00    +0.211 HD
ENDBRANCH  19  36
BRANCH  20  38
ATOM     38  O   UNL     1      -0.548   6.914  -8.113  1.00  0.00    -0.385 OA
ATOM     39  H   UNL     1      -0.852   6.102  -8.569  1.00  0.00    +0.211 HD
ENDBRANCH  20  38
BRANCH  21  40
ATOM     40  C   UNL     1      -4.463   8.250  -5.906  1.00  0.00    +0.191 C 
BRANCH  40  41
ATOM     41  O   UNL     1      -5.341   7.144  -5.655  1.00  0.00    -0.394 OA
ATOM     42  H   UNL     1      -4.844   6.558  -5.039  1.00  0.00    +0.210 HD
ENDBRANCH  40  41
ENDBRANCH  21  40
ENDBRANCH  16  17
ENDBRANCH   9  16
BRANCH  15  43
ATOM     43  O   UNL     1       2.890   9.063  -6.577  1.00  0.00    -0.385 OA
ATOM     44  H   UNL     1       2.918   9.615  -5.770  1.00  0.00    +0.211 HD
ENDBRANCH  15  43
ENDBRANCH   7   8
ENDBRANCH   1   7
BRANCH   2  45
ATOM     45  O   UNL     1       5.823  10.800 -11.280  1.00  0.00    -0.387 OA
ATOM     46  H   UNL     1       6.763  10.526 -11.269  1.00  0.00    +0.211 HD
ENDBRANCH   2  45
BRANCH   6  47
ATOM     47  O   UNL     1       2.050   8.772 -10.520  1.00  0.00    -0.385 OA
ATOM     48  H   UNL     1       1.798   8.217  -9.757  1.00  0.00    +0.211 HD
ENDBRANCH   6  47
BRANCH   3  49
ATOM     49  C   UNL     1       7.220   9.692  -8.505  1.00  0.00    +0.191 C 
BRANCH  49  50
ATOM     50  O   UNL     1       7.402   8.770  -7.433  1.00  0.00    -0.394 OA
ATOM     51  H   UNL     1       7.342   9.294  -6.602  1.00  0.00    +0.210 HD
ENDBRANCH  49  50
ENDBRANCH   3  49
BRANCH   5  52
ATOM     52  O   UNL     1       4.508   6.779 -10.091  1.00  0.00    -0.341 OA
BRANCH  52  53
ATOM     53  C   UNL     1       3.597   5.680  -9.998  1.00  0.00    +0.184 C 
ATOM     54  C   UNL     1       4.309   4.416 -10.448  1.00  0.00    +0.179 C 
ATOM     55  C   UNL     1       3.311   5.234  -8.559  1.00  0.00    +0.184 C 
ATOM     56  C   UNL     1       5.259   4.177  -9.272  1.00  0.00    +0.195 C 
ATOM     57  O   UNL     1       3.348   3.350 -10.622  1.00  0.00    -0.341 OA
ATOM     58  O   UNL     1       4.529   4.594  -8.091  1.00  0.00    -0.370 OA
ATOM     59  C   UNL     1       2.204   4.173  -8.582  1.00  0.00    +0.202 C 
ATOM     60  C   UNL     1       2.677   2.956  -9.420  1.00  0.00    +0.282 C 
BRANCH  59  61
ATOM     61  O   UNL     1       1.000   4.739  -9.127  1.00  0.00    -0.385 OA
ATOM     62  H   UNL     1       1.265   5.599  -9.511  1.00  0.00    +0.211 HD
ENDBRANCH  59  61
BRANCH  60  63
ATOM     63  O   UNL     1       1.513   2.208  -9.792  1.00  0.00    -0.341 OA
BRANCH  63  64
ATOM     64  C   UNL     1       1.743   1.230 -10.819  1.00  0.00    +0.186 C 
ATOM     65  C   UNL     1       2.448   0.027 -10.156  1.00  0.00    +0.177 C 
ATOM     66  C   UNL     1       0.463   0.741 -11.534  1.00  0.00    +0.202 C 
ATOM     67  C   UNL     1       1.461  -0.739  -9.249  1.00  0.00    +0.178 C 
ATOM     68  C   UNL     1      -0.427  -0.070 -10.562  1.00  0.00    +0.279 C 
ATOM     69  O   UNL     1       0.305  -1.153  -9.992  1.00  0.00    -0.342 OA
BRANCH  65  70
ATOM     70  O   UNL     1       3.007  -0.842 -11.153  1.00  0.00    -0.387 OA
ATOM     71  H   UNL     1       2.669  -0.529 -12.023  1.00  0.00    +0.211 HD
ENDBRANCH  65  70
BRANCH  66  72
ATOM     72  O   UNL     1       0.865  -0.074 -12.654  1.00  0.00    -0.385 OA
ATOM     73  H   UNL     1       0.359   0.229 -13.433  1.00  0.00    +0.211 HD
ENDBRANCH  66  72
BRANCH  67  74
ATOM     74  C   UNL     1       2.097  -1.985  -8.606  1.00  0.00    +0.191 C 
BRANCH  74  75
ATOM     75  O   UNL     1       2.487  -2.982  -9.550  1.00  0.00    -0.394 OA
ATOM     76  H   UNL     1       1.998  -2.792 -10.379  1.00  0.00    +0.210 HD
ENDBRANCH  74  75
ENDBRANCH  67  74
BRANCH  68  77
ATOM     77  O   UNL     1      -1.044   0.716  -9.556  1.00  0.00    -0.366 OA
ATOM     78  H   UNL     1      -1.582   0.129  -8.991  1.00  0.00    +0.213 HD
ENDBRANCH  68  77
ENDBRANCH  63  64
ENDBRANCH  60  63
ENDBRANCH  52  53
ENDBRANCH   5  52
TORSDOF 27
ENDMDL
MODEL 2
REMARK VINA RESULT:    -8.789     18.298     25.471
REMARK INTER + INTRA:         -22.750
REMARK INTER:                 -19.414
REMARK INTRA:                  -3.336
REMARK UNBOUND:                -3.686
REMARK SMILES OC[C@@H]1O[C@H](O[C@H]2[C@@H]3OC[C@H]2O[C@@H](O[C@@H]2[C@H](O)[C@@H](O[C@@H]4[C@@H]5OC[C@H]4O[C@H](O[C@@H]4[C@@H](O)[C@H](O)O[C@@H](CO)[C@H]4O)[C@@H]5O)O[C@H](CO)[C@H]2O)[C@H]3O)[C@@H](O)[C@H](O[C@@H]2O[C@@H]3CO[C@H]([C@H]2O)[C@@H]3O)[C@H]1O
REMARK SMILES IDX 15 1 45 2 42 3 41 4 18 5 16 6 14 7 13 8 7 9 11 10 8 11 10 12
REMARK SMILES IDX 12 13 9 14 47 15 6 16 5 17 51 18 63 19 49 20 3 21 4 22 52 23
REMARK SMILES IDX 53 24 56 25 55 26 57 27 61 28 54 29 58 30 59 31 62 32 60 34
REMARK SMILES IDX 64 36 50 38 2 40 1 41 48 43 46 45 17 47 43 49 44 50 19 52
REMARK SMILES IDX 20 53 24 54 21 55 23 56 25 57 22 58 39 59 26 60 40 61 27 63
REMARK SMILES IDX 28 64 37 65 29 66 34 67 31 68 33 69 38 70 30 72 35 74 36 75
REMARK SMILES IDX 32 77
REMARK H PARENT 62 33 60 35 64 37 50 39 1 42 48 44 46 46 17 48 44 51 40 62
REMARK H PARENT 38 71 30 73 36 76 32 78
ROOT
ATOM      1  C   UNL     1     -12.285 -13.606   2.434  1.00  0.00    +0.186 C 
ATOM      2  C   UNL     1     -12.540 -15.039   2.945  1.00  0.00    +0.177 C 
ATOM      3  C   UNL     1     -12.591 -15.113   4.487  1.00  0.00    +0.178 C 
ATOM      4  O   UNL     1     -11.928 -14.002   5.091  1.00  0.00    -0.341 OA
ATOM      5  C   UNL     1     -12.573 -12.758   4.809  1.00  0.00    +0.282 C 
ATOM      6  C   UNL     1     -13.054 -12.632   3.337  1.00  0.00    +0.202 C 
ENDROOT
BRANCH   1   7
ATOM      7  O   UNL     1     -10.906 -13.166   2.431  1.00  0.00    -0.341 OA
BRANCH   7   8
ATOM      8  C   UNL     1     -10.331 -13.051   1.123  1.00  0.00    +0.282 C 
ATOM      9  C   UNL     1      -7.486 -12.541   0.634  1.00  0.00    +0.184 C 
ATOM     10  C   UNL     1      -8.013 -13.705   1.461  1.00  0.00    +0.179 C 
ATOM     11  C   UNL     1      -8.343 -11.457   1.283  1.00  0.00    +0.184 C 
ATOM     12  C   UNL     1      -7.983 -13.107   2.868  1.00  0.00    +0.195 C 
ATOM     13  O   UNL     1      -9.326 -14.067   0.979  1.00  0.00    -0.341 OA
ATOM     14  O   UNL     1      -8.257 -11.696   2.709  1.00  0.00    -0.370 OA
ATOM     15  C   UNL     1      -9.810 -11.613   0.852  1.00  0.00    +0.202 C 
BRANCH   9  16
ATOM     16  O   UNL     1      -7.737 -12.631  -0.763  1.00  0.00    -0.341 OA
BRANCH  16  17
ATOM     17  C   UNL     1      -7.579 -11.396  -1.487  1.00  0.00    +0.282 C 
ATOM     18  C   UNL     1      -7.607 -10.582  -3.928  1.00  0.00    +0.186 C 
ATOM     19  C   UNL     1      -6.433  -9.724  -3.431  1.00  0.00    +0.177 C 
ATOM     20  C   UNL     1      -7.977 -11.705  -2.946  1.00  0.00    +0.202 C 
ATOM     21  C   UNL     1      -5.528 -10.472  -2.451  1.00  0.00    +0.178 C 
ATOM     22  O   UNL     1      -6.246 -10.937  -1.305  1.00  0.00    -0.341 OA
BRANCH  18  23
ATOM     23  O   UNL     1      -7.215 -11.146  -5.200  1.00  0.00    -0.341 OA
BRANCH  23  24
ATOM     24  C   UNL     1      -7.733 -10.437  -6.333  1.00  0.00    +0.282 C 
ATOM     25  C   UNL     1      -9.503 -12.794  -6.354  1.00  0.00    +0.195 C 
ATOM     26  C   UNL     1      -9.923 -11.401  -6.820  1.00  0.00    +0.178 C 
ATOM     27  O   UNL     1      -8.402 -13.185  -7.208  1.00  0.00    -0.370 OA
ATOM     28  C   UNL     1      -9.613 -11.495  -8.301  1.00  0.00    +0.177 C 
ATOM     29  O   UNL     1      -9.164 -10.330  -6.229  1.00  0.00    -0.341 OA
ATOM     30  C   UNL     1      -8.230 -12.127  -8.177  1.00  0.00    +0.183 C 
ATOM     31  C   UNL     1      -7.223 -11.095  -7.648  1.00  0.00    +0.202 C 
BRANCH  28  32
ATOM     32  O   UNL     1      -9.614 -10.240  -8.968  1.00  0.00    -0.387 OA
ATOM     33  H   UNL     1     -10.276 -10.292  -9.684  1.00  0.00    +0.211 HD
ENDBRANCH  28  32
BRANCH  31  34
ATOM     34  O   UNL     1      -6.979 -10.093  -8.650  1.00  0.00    -0.385 OA
ATOM     35  H   UNL     1      -7.860  -9.777  -8.950  1.00  0.00    +0.211 HD
ENDBRANCH  31  34
ENDBRANCH  23  24
ENDBRANCH  18  23
BRANCH  19  36
ATOM     36  O   UNL     1      -6.990  -8.580  -2.758  1.00  0.00    -0.387 OA
ATOM     37  H   UNL     1      -7.959  -8.615  -2.857  1.00  0.00    +0.211 HD
ENDBRANCH  19  36
BRANCH  20  38
ATOM     38  O   UNL     1      -9.390 -11.975  -3.034  1.00  0.00    -0.385 OA
ATOM     39  H   UNL     1      -9.686 -12.176  -2.122  1.00  0.00    +0.211 HD
ENDBRANCH  20  38
BRANCH  21  40
ATOM     40  C   UNL     1      -4.715 -11.622  -3.061  1.00  0.00    +0.191 C 
BRANCH  40  41
ATOM     41  O   UNL     1      -4.296 -11.256  -4.384  1.00  0.00    -0.394 OA
ATOM     42  H   UNL     1      -4.958 -10.594  -4.688  1.00  0.00    +0.210 HD
ENDBRANCH  40  41
ENDBRANCH  21  40
ENDBRANCH  16  17
ENDBRANCH   9  16
BRANCH  15  43
ATOM     43  O   UNL     1     -10.627 -10.633   1.505  1.00  0.00    -0.385 OA
ATOM     44  H   UNL     1     -10.799 -11.006   2.394  1.00  0.00    +0.211 HD
ENDBRANCH  15  43
ENDBRANCH   7   8
ENDBRANCH   1   7
BRANCH   2  45
ATOM     45  O   UNL     1     -13.791 -15.512   2.418  1.00  0.00    -0.387 OA
ATOM     46  H   UNL     1     -13.923 -16.405   2.799  1.00  0.00    +0.211 HD
ENDBRANCH   2  45
BRANCH   6  47
ATOM     47  O   UNL     1     -12.871 -11.284   2.865  1.00  0.00    -0.385 OA
ATOM     48  H   UNL     1     -12.002 -11.276   2.420  1.00  0.00    +0.211 HD
ENDBRANCH   6  47
BRANCH   3  49
ATOM     49  C   UNL     1     -11.933 -16.405   4.994  1.00  0.00    +0.191 C 
BRANCH  49  50
ATOM     50  O   UNL     1     -10.695 -16.138   5.647  1.00  0.00    -0.394 OA
ATOM     51  H   UNL     1     -10.832 -15.321   6.179  1.00  0.00    +0.210 HD
ENDBRANCH  49  50
ENDBRANCH   3  49
BRANCH   5  52
ATOM     52  O   UNL     1     -13.699 -12.561   5.674  1.00  0.00    -0.341 OA
BRANCH  52  53
ATOM     53  C   UNL     1     -13.466 -11.600   6.707  1.00  0.00    +0.184 C 
ATOM     54  C   UNL     1     -14.793 -10.975   7.101  1.00  0.00    +0.179 C 
ATOM     55  C   UNL     1     -13.139 -12.224   8.069  1.00  0.00    +0.184 C 
ATOM     56  C   UNL     1     -15.455 -12.134   7.850  1.00  0.00    +0.195 C 
ATOM     57  O   UNL     1     -14.560  -9.822   7.940  1.00  0.00    -0.341 OA
ATOM     58  O   UNL     1     -14.379 -12.814   8.545  1.00  0.00    -0.370 OA
ATOM     59  C   UNL     1     -12.747 -11.106   9.043  1.00  0.00    +0.202 C 
ATOM     60  C   UNL     1     -13.935 -10.119   9.195  1.00  0.00    +0.282 C 
BRANCH  59  61
ATOM     61  O   UNL     1     -11.573 -10.432   8.562  1.00  0.00    -0.385 OA
ATOM     62  H   UNL     1     -11.135 -10.068   9.357  1.00  0.00    +0.211 HD
ENDBRANCH  59  61
BRANCH  60  63
ATOM     63  O   UNL     1     -13.415  -8.895   9.727  1.00  0.00    -0.341 OA
BRANCH  63  64
ATOM     64  C   UNL     1     -14.001  -7.710   9.164  1.00  0.00    +0.186 C 
ATOM     65  C   UNL     1     -14.341  -6.766  10.337  1.00  0.00    +0.177 C 
ATOM     66  C   UNL     1     -13.095  -6.966   8.156  1.00  0.00    +0.202 C 
ATOM     67  C   UNL     1     -13.049  -6.182  10.947  1.00  0.00    +0.178 C 
ATOM     68  C   UNL     1     -11.864  -6.363   8.874  1.00  0.00    +0.279 C 
ATOM     69  O   UNL     1     -12.271  -5.513   9.943  1.00  0.00    -0.342 OA
BRANCH  65  70
ATOM     70  O   UNL     1     -15.221  -5.718   9.901  1.00  0.00    -0.387 OA
ATOM     71  H   UNL     1     -15.880  -6.133   9.299  1.00  0.00    +0.211 HD
ENDBRANCH  65  70
BRANCH  66  72
ATOM     72  O   UNL     1     -13.882  -5.928   7.536  1.00  0.00    -0.385 OA
ATOM     73  H   UNL     1     -14.589  -5.683   8.163  1.00  0.00    +0.211 HD
ENDBRANCH  66  72
BRANCH  67  74
ATOM     74  C   UNL     1     -13.333  -5.186  12.087  1.00  0.00    +0.191 C 
BRANCH  74  75
ATOM     75  O   UNL     1     -12.335  -5.180  13.106  1.00  0.00    -0.394 OA
ATOM     76  H   UNL     1     -11.948  -6.081  13.127  1.00  0.00    +0.210 HD
ENDBRANCH  74  75
ENDBRANCH  67  74
BRANCH  68  77
ATOM     77  O   UNL     1     -10.925  -7.328   9.315  1.00  0.00    -0.366 OA
ATOM     78  H   UNL     1     -10.601  -7.822   8.539  1.00  0.00    +0.213 HD
ENDBRANCH  68  77
ENDBRANCH  63  64
ENDBRANCH  60  63
ENDBRANCH  52  53
ENDBRANCH   5  52
TORSDOF 27
ENDMDL
MODEL 3
REMARK VINA RESULT:    -8.351      5.851     10.404
REMARK INTER + INTRA:         -21.801
REMARK INTER:                 -18.336
REMARK INTRA:                  -3.466
REMARK UNBOUND:                -3.686
REMARK SMILES OC[C@@H]1O[C@H](O[C@H]2[C@@H]3OC[C@H]2O[C@@H](O[C@@H]2[C@H](O)[C@@H](O[C@@H]4[C@@H]5OC[C@H]4O[C@H](O[C@@H]4[C@@H](O)[C@H](O)O[C@@H](CO)[C@H]4O)[C@@H]5O)O[C@H](CO)[C@H]2O)[C@H]3O)[C@@H](O)[C@H](O[C@@H]2O[C@@H]3CO[C@H]([C@H]2O)[C@@H]3O)[C@H]1O
REMARK SMILES IDX 15 1 45 2 42 3 41 4 18 5 16 6 14 7 13 8 7 9 11 10 8 11 10 12
REMARK SMILES IDX 12 13 9 14 47 15 6 16 5 17 51 18 63 19 49 20 3 21 4 22 52 23
REMARK SMILES IDX 53 24 56 25 55 26 57 27 61 28 54 29 58 30 59 31 62 32 60 34
REMARK SMILES IDX 64 36 50 38 2 40 1 41 48 43 46 45 17 47 43 49 44 50 19 52
REMARK SMILES IDX 20 53 24 54 21 55 23 56 25 57 22 58 39 59 26 60 40 61 27 63
REMARK SMILES IDX 28 64 37 65 29 66 34 67 31 68 33 69 38 70 30 72 35 74 36 75
REMARK SMILES IDX 32 77
REMARK H PARENT 62 33 60 35 64 37 50 39 1 42 48 44 46 46 17 48 44 51 40 62
REMARK H PARENT 38 71 30 73 36 76 32 78
ROOT
ATOM      1  C   UNL     1       8.534   7.135  -9.747  1.00  0.00    +0.186 C 
ATOM      2  C   UNL     1       8.727   8.331 -10.703  1.00  0.00    +0.177 C 
ATOM      3  C   UNL     1       9.546   9.471 -10.059  1.00  0.00    +0.178 C 
ATOM      4  O   UNL     1       9.522   9.398  -8.633  1.00  0.00    -0.341 OA
ATOM      5  C   UNL     1      10.162   8.223  -8.132  1.00  0.00    +0.282 C 
ATOM      6  C   UNL     1       9.832   6.944  -8.952  1.00  0.00    +0.202 C 
ENDROOT
BRANCH   1   7
ATOM      7  O   UNL     1       7.468   7.259  -8.775  1.00  0.00    -0.341 OA
BRANCH   7   8
ATOM      8  C   UNL     1       6.397   6.324  -8.959  1.00  0.00    +0.282 C 
ATOM      9  C   UNL     1       3.661   7.102  -9.669  1.00  0.00    +0.184 C 
ATOM     10  C   UNL     1       4.892   7.477 -10.483  1.00  0.00    +0.179 C 
ATOM     11  C   UNL     1       4.223   7.492  -8.303  1.00  0.00    +0.184 C 
ATOM     12  C   UNL     1       5.236   8.844  -9.890  1.00  0.00    +0.195 C 
ATOM     13  O   UNL     1       5.902   6.460 -10.301  1.00  0.00    -0.341 OA
ATOM     14  O   UNL     1       4.851   8.783  -8.497  1.00  0.00    -0.370 OA
ATOM     15  C   UNL     1       5.302   6.488  -7.869  1.00  0.00    +0.202 C 
BRANCH   9  16
ATOM     16  O   UNL     1       3.308   5.726  -9.708  1.00  0.00    -0.341 OA
BRANCH  16  17
ATOM     17  C   UNL     1       2.386   5.367 -10.755  1.00  0.00    +0.282 C 
ATOM     18  C   UNL     1       1.248   3.249 -11.672  1.00  0.00    +0.186 C 
ATOM     19  C   UNL     1       1.553   3.926 -13.016  1.00  0.00    +0.177 C 
ATOM     20  C   UNL     1       2.006   3.893 -10.500  1.00  0.00    +0.202 C 
ATOM     21  C   UNL     1       2.911   4.630 -13.030  1.00  0.00    +0.178 C 
ATOM     22  O   UNL     1       3.008   5.625 -12.008  1.00  0.00    -0.341 OA
BRANCH  18  23
ATOM     23  O   UNL     1       1.622   1.859 -11.798  1.00  0.00    -0.341 OA
BRANCH  23  24
ATOM     24  C   UNL     1       0.549   0.943 -11.541  1.00  0.00    +0.282 C 
ATOM     25  C   UNL     1       2.491   0.036  -9.516  1.00  0.00    +0.195 C 
ATOM     26  C   UNL     1       0.975  -0.031  -9.343  1.00  0.00    +0.178 C 
ATOM     27  O   UNL     1       2.796  -0.779 -10.673  1.00  0.00    -0.370 OA
ATOM     28  C   UNL     1       0.696  -1.433  -9.849  1.00  0.00    +0.177 C 
ATOM     29  O   UNL     1       0.249   0.928 -10.134  1.00  0.00    -0.341 OA
ATOM     30  C   UNL     1       1.549  -1.362 -11.111  1.00  0.00    +0.183 C 
ATOM     31  C   UNL     1       0.883  -0.449 -12.150  1.00  0.00    +0.202 C 
BRANCH  28  32
ATOM     32  O   UNL     1      -0.680  -1.689 -10.098  1.00  0.00    -0.387 OA
ATOM     33  H   UNL     1      -0.736  -2.197 -10.930  1.00  0.00    +0.211 HD
ENDBRANCH  28  32
BRANCH  31  34
ATOM     34  O   UNL     1      -0.309  -1.074 -12.658  1.00  0.00    -0.385 OA
ATOM     35  H   UNL     1      -0.214  -1.104 -13.636  1.00  0.00    +0.211 HD
ENDBRANCH  31  34
ENDBRANCH  23  24
ENDBRANCH  18  23
BRANCH  19  36
ATOM     36  O   UNL     1       0.526   4.907 -13.249  1.00  0.00    -0.387 OA
ATOM     37  H   UNL     1       0.571   5.565 -12.531  1.00  0.00    +0.211 HD
ENDBRANCH  19  36
BRANCH  20  38
ATOM     38  O   UNL     1       1.218   3.780  -9.297  1.00  0.00    -0.385 OA
ATOM     39  H   UNL     1       1.857   3.653  -8.565  1.00  0.00    +0.211 HD
ENDBRANCH  20  38
BRANCH  21  40
ATOM     40  C   UNL     1       4.129   3.699 -12.971  1.00  0.00    +0.191 C 
BRANCH  40  41
ATOM     41  O   UNL     1       5.252   4.421 -12.445  1.00  0.00    -0.394 OA
ATOM     42  H   UNL     1       4.867   5.228 -12.033  1.00  0.00    +0.210 HD
ENDBRANCH  40  41
ENDBRANCH  21  40
ENDBRANCH  16  17
ENDBRANCH   9  16
BRANCH  15  43
ATOM     43  O   UNL     1       5.874   6.883  -6.616  1.00  0.00    -0.385 OA
ATOM     44  H   UNL     1       6.107   6.042  -6.173  1.00  0.00    +0.211 HD
ENDBRANCH  15  43
ENDBRANCH   7   8
ENDBRANCH   1   7
BRANCH   2  45
ATOM     45  O   UNL     1       9.407   7.883 -11.887  1.00  0.00    -0.387 OA
ATOM     46  H   UNL     1      10.208   8.443 -11.964  1.00  0.00    +0.211 HD
ENDBRANCH   2  45
BRANCH   6  47
ATOM     47  O   UNL     1       9.704   5.808  -8.075  1.00  0.00    -0.385 OA
ATOM     48  H   UNL     1      10.504   5.816  -7.515  1.00  0.00    +0.211 HD
ENDBRANCH   6  47
BRANCH   3  49
ATOM     49  C   UNL     1       9.002  10.842 -10.485  1.00  0.00    +0.191 C 
BRANCH  49  50
ATOM     50  O   UNL     1       9.986  11.597 -11.187  1.00  0.00    -0.394 OA
ATOM     51  H   UNL     1      10.691  10.962 -11.448  1.00  0.00    +0.210 HD
ENDBRANCH  49  50
ENDBRANCH   3  49
BRANCH   5  52
ATOM     52  O   UNL     1      11.585   8.390  -8.104  1.00  0.00    -0.341 OA
BRANCH  52  53
ATOM     53  C   UNL     1      12.195   7.895  -6.909  1.00  0.00    +0.184 C 
ATOM     54  C   UNL     1      13.045   6.685  -7.259  1.00  0.00    +0.179 C 
ATOM     55  C   UNL     1      13.333   8.779  -6.383  1.00  0.00    +0.184 C 
ATOM     56  C   UNL     1      14.213   7.348  -7.995  1.00  0.00    +0.195 C 
ATOM     57  O   UNL     1      13.452   6.008  -6.049  1.00  0.00    -0.341 OA
ATOM     58  O   UNL     1      14.432   8.611  -7.319  1.00  0.00    -0.370 OA
ATOM     59  C   UNL     1      13.789   8.240  -5.022  1.00  0.00    +0.202 C 
ATOM     60  C   UNL     1      14.298   6.784  -5.192  1.00  0.00    +0.282 C 
BRANCH  59  61
ATOM     61  O   UNL     1      12.701   8.301  -4.086  1.00  0.00    -0.385 OA
ATOM     62  H   UNL     1      12.493   9.252  -3.987  1.00  0.00    +0.211 HD
ENDBRANCH  59  61
BRANCH  60  63
ATOM     63  O   UNL     1      14.293   6.170  -3.897  1.00  0.00    -0.341 OA
BRANCH  63  64
ATOM     64  C   UNL     1      15.518   6.328  -3.164  1.00  0.00    +0.186 C 
ATOM     65  C   UNL     1      15.195   6.076  -1.675  1.00  0.00    +0.177 C 
ATOM     66  C   UNL     1      16.655   5.379  -3.607  1.00  0.00    +0.202 C 
ATOM     67  C   UNL     1      14.910   4.579  -1.434  1.00  0.00    +0.178 C 
ATOM     68  C   UNL     1      16.303   3.911  -3.264  1.00  0.00    +0.279 C 
ATOM     69  O   UNL     1      16.014   3.774  -1.875  1.00  0.00    -0.342 OA
BRANCH  65  70
ATOM     70  O   UNL     1      16.273   6.533  -0.842  1.00  0.00    -0.387 OA
ATOM     71  H   UNL     1      15.984   7.388  -0.449  1.00  0.00    +0.211 HD
ENDBRANCH  65  70
BRANCH  66  72
ATOM     72  O   UNL     1      17.861   5.784  -2.928  1.00  0.00    -0.385 OA
ATOM     73  H   UNL     1      18.047   6.707  -3.188  1.00  0.00    +0.211 HD
ENDBRANCH  66  72
BRANCH  67  74
ATOM     74  C   UNL     1      14.639   4.262   0.048  1.00  0.00    +0.191 C 
BRANCH  74  75
ATOM     75  O   UNL     1      14.485   5.423   0.864  1.00  0.00    -0.394 OA
ATOM     76  H   UNL     1      15.250   6.006   0.671  1.00  0.00    +0.210 HD
ENDBRANCH  74  75
ENDBRANCH  67  74
BRANCH  68  77
ATOM     77  O   UNL     1      15.263   3.368  -4.060  1.00  0.00    -0.366 OA
ATOM     78  H   UNL     1      14.522   4.002  -4.077  1.00  0.00    +0.213 HD
ENDBRANCH  68  77
ENDBRANCH  63  64
ENDBRANCH  60  63
ENDBRANCH  52  53
ENDBRANCH   5  52
TORSDOF 27
ENDMDL
MODEL 4
REMARK VINA RESULT:    -8.213      5.499      8.930
REMARK INTER + INTRA:         -21.501
REMARK INTER:                 -18.306
REMARK INTRA:                  -3.195
REMARK UNBOUND:                -3.686
REMARK SMILES OC[C@@H]1O[C@H](O[C@H]2[C@@H]3OC[C@H]2O[C@@H](O[C@@H]2[C@H](O)[C@@H](O[C@@H]4[C@@H]5OC[C@H]4O[C@H](O[C@@H]4[C@@H](O)[C@H](O)O[C@@H](CO)[C@H]4O)[C@@H]5O)O[C@H](CO)[C@H]2O)[C@H]3O)[C@@H](O)[C@H](O[C@@H]2O[C@@H]3CO[C@H]([C@H]2O)[C@@H]3O)[C@H]1O
REMARK SMILES IDX 15 1 45 2 42 3 41 4 18 5 16 6 14 7 13 8 7 9 11 10 8 11 10 12
REMARK SMILES IDX 12 13 9 14 47 15 6 16 5 17 51 18 63 19 49 20 3 21 4 22 52 23
REMARK SMILES IDX 53 24 56 25 55 26 57 27 61 28 54 29 58 30 59 31 62 32 60 34
REMARK SMILES IDX 64 36 50 38 2 40 1 41 48 43 46 45 17 47 43 49 44 50 19 52
REMARK SMILES IDX 20 53 24 54 21 55 23 56 25 57 22 58 39 59 26 60 40 61 27 63
REMARK SMILES IDX 28 64 37 65 29 66 34 67 31 68 33 69 38 70 30 72 35 74 36 75
REMARK SMILES IDX 32 77
REMARK H PARENT 62 33 60 35 64 37 50 39 1 42 48 44 46 46 17 48 44 51 40 62
REMARK H PARENT 38 71 30 73 36 76 32 78
ROOT
ATOM      1  C   UNL     1      -0.754  11.403 -12.450  1.00  0.00    +0.186 C 
ATOM      2  C   UNL     1      -1.440  12.778 -12.313  1.00  0.00    +0.177 C 
ATOM      3  C   UNL     1      -0.615  13.913 -12.960  1.00  0.00    +0.178 C 
ATOM      4  O   UNL     1       0.762  13.555 -13.093  1.00  0.00    -0.341 OA
ATOM      5  C   UNL     1       0.960  12.462 -13.993  1.00  0.00    +0.282 C 
ATOM      6  C   UNL     1      -0.095  11.332 -13.833  1.00  0.00    +0.202 C 
ENDROOT
BRANCH   1   7
ATOM      7  O   UNL     1       0.282  11.107 -11.482  1.00  0.00    -0.341 OA
BRANCH   7   8
ATOM      8  C   UNL     1       0.085   9.877 -10.772  1.00  0.00    +0.282 C 
ATOM      9  C   UNL     1       0.106   9.665  -7.848  1.00  0.00    +0.184 C 
ATOM     10  C   UNL     1      -0.812  10.596  -8.628  1.00  0.00    +0.179 C 
ATOM     11  C   UNL     1       1.395  10.023  -8.585  1.00  0.00    +0.184 C 
ATOM     12  C   UNL     1       0.014  11.883  -8.643  1.00  0.00    +0.195 C 
ATOM     13  O   UNL     1      -1.068  10.020  -9.928  1.00  0.00    -0.341 OA
ATOM     14  O   UNL     1       1.399  11.469  -8.677  1.00  0.00    -0.370 OA
ATOM     15  C   UNL     1       1.368   9.446 -10.009  1.00  0.00    +0.202 C 
BRANCH   9  16
ATOM     16  O   UNL     1      -0.192   8.281  -7.973  1.00  0.00    -0.341 OA
BRANCH  16  17
ATOM     17  C   UNL     1      -0.647   7.648  -6.762  1.00  0.00    +0.282 C 
ATOM     18  C   UNL     1      -2.127   5.659  -6.071  1.00  0.00    +0.186 C 
ATOM     19  C   UNL     1      -2.591   6.653  -4.995  1.00  0.00    +0.177 C 
ATOM     20  C   UNL     1      -1.333   6.336  -7.199  1.00  0.00    +0.202 C 
ATOM     21  C   UNL     1      -2.714   8.083  -5.525  1.00  0.00    +0.178 C 
ATOM     22  O   UNL     1      -1.480   8.564  -6.062  1.00  0.00    -0.341 OA
BRANCH  18  23
ATOM     23  O   UNL     1      -3.312   5.029  -6.608  1.00  0.00    -0.341 OA
BRANCH  23  24
ATOM     24  C   UNL     1      -3.280   3.596  -6.559  1.00  0.00    +0.282 C 
ATOM     25  C   UNL     1      -5.559   4.119  -4.762  1.00  0.00    +0.195 C 
ATOM     26  C   UNL     1      -5.430   2.882  -5.649  1.00  0.00    +0.178 C 
ATOM     27  O   UNL     1      -4.419   4.090  -3.871  1.00  0.00    -0.370 OA
ATOM     28  C   UNL     1      -4.764   1.916  -4.688  1.00  0.00    +0.177 C 
ATOM     29  O   UNL     1      -4.597   3.072  -6.807  1.00  0.00    -0.341 OA
ATOM     30  C   UNL     1      -3.701   2.869  -4.152  1.00  0.00    +0.183 C 
ATOM     31  C   UNL     1      -2.633   3.127  -5.224  1.00  0.00    +0.202 C 
BRANCH  28  32
ATOM     32  O   UNL     1      -4.234   0.756  -5.316  1.00  0.00    -0.387 OA
ATOM     33  H   UNL     1      -4.127   0.074  -4.626  1.00  0.00    +0.211 HD
ENDBRANCH  28  32
BRANCH  31  34
ATOM     34  O   UNL     1      -1.854   1.935  -5.435  1.00  0.00    -0.385 OA
ATOM     35  H   UNL     1      -1.156   1.932  -4.744  1.00  0.00    +0.211 HD
ENDBRANCH  31  34
ENDBRANCH  23  24
ENDBRANCH  18  23
BRANCH  19  36
ATOM     36  O   UNL     1      -1.609   6.639  -3.942  1.00  0.00    -0.387 OA
ATOM     37  H   UNL     1      -2.035   6.968  -3.130  1.00  0.00    +0.211 HD
ENDBRANCH  19  36
BRANCH  20  38
ATOM     38  O   UNL     1      -0.359   5.412  -7.723  1.00  0.00    -0.385 OA
ATOM     39  H   UNL     1       0.511   5.854  -7.634  1.00  0.00    +0.211 HD
ENDBRANCH  20  38
BRANCH  21  40
ATOM     40  C   UNL     1      -3.848   8.309  -6.535  1.00  0.00    +0.191 C 
BRANCH  40  41
ATOM     41  O   UNL     1      -4.712   9.347  -6.052  1.00  0.00    -0.394 OA
ATOM     42  H   UNL     1      -4.349   9.593  -5.170  1.00  0.00    +0.210 HD
ENDBRANCH  40  41
ENDBRANCH  21  40
ENDBRANCH  16  17
ENDBRANCH   9  16
BRANCH  15  43
ATOM     43  O   UNL     1       2.550   9.831 -10.723  1.00  0.00    -0.385 OA
ATOM     44  H   UNL     1       2.219  10.275 -11.530  1.00  0.00    +0.211 HD
ENDBRANCH  15  43
ENDBRANCH   7   8
ENDBRANCH   1   7
BRANCH   2  45
ATOM     45  O   UNL     1      -2.730  12.726 -12.945  1.00  0.00    -0.387 OA
ATOM     46  H   UNL     1      -2.789  11.842 -13.362  1.00  0.00    +0.211 HD
ENDBRANCH   2  45
BRANCH   6  47
ATOM     47  O   UNL     1       0.524  10.043 -14.013  1.00  0.00    -0.385 OA
ATOM     48  H   UNL     1       0.443   9.843 -14.965  1.00  0.00    +0.211 HD
ENDBRANCH   6  47
BRANCH   3  49
ATOM     49  C   UNL     1      -0.704  15.197 -12.124  1.00  0.00    +0.191 C 
BRANCH  49  50
ATOM     50  O   UNL     1      -2.057  15.593 -11.920  1.00  0.00    -0.394 OA
ATOM     51  H   UNL     1      -2.478  14.881 -11.386  1.00  0.00    +0.210 HD
ENDBRANCH  49  50
ENDBRANCH   3  49
BRANCH   5  52
ATOM     52  O   UNL     1       0.941  12.912 -15.353  1.00  0.00    -0.341 OA
BRANCH  52  53
ATOM     53  C   UNL     1       2.189  12.740 -16.030  1.00  0.00    +0.184 C 
ATOM     54  C   UNL     1       2.236  11.342 -16.621  1.00  0.00    +0.179 C 
ATOM     55  C   UNL     1       2.286  13.508 -17.354  1.00  0.00    +0.184 C 
ATOM     56  C   UNL     1       1.234  11.474 -17.772  1.00  0.00    +0.195 C 
ATOM     57  O   UNL     1       3.576  11.046 -17.073  1.00  0.00    -0.341 OA
ATOM     58  O   UNL     1       1.398  12.823 -18.278  1.00  0.00    -0.370 OA
ATOM     59  C   UNL     1       3.715  13.382 -17.895  1.00  0.00    +0.202 C 
ATOM     60  C   UNL     1       4.041  11.885 -18.138  1.00  0.00    +0.282 C 
BRANCH  59  61
ATOM     61  O   UNL     1       4.641  13.968 -16.964  1.00  0.00    -0.385 OA
ATOM     62  H   UNL     1       5.194  14.576 -17.493  1.00  0.00    +0.211 HD
ENDBRANCH  59  61
BRANCH  60  63
ATOM     63  O   UNL     1       5.466  11.757 -18.206  1.00  0.00    -0.341 OA
BRANCH  63  64
ATOM     64  C   UNL     1       5.926  10.439 -18.545  1.00  0.00    +0.186 C 
ATOM     65  C   UNL     1       6.157  10.413 -20.072  1.00  0.00    +0.177 C 
ATOM     66  C   UNL     1       7.224  10.010 -17.825  1.00  0.00    +0.202 C 
ATOM     67  C   UNL     1       7.400  11.251 -20.439  1.00  0.00    +0.178 C 
ATOM     68  C   UNL     1       8.421  10.863 -18.308  1.00  0.00    +0.279 C 
ATOM     69  O   UNL     1       8.555  10.786 -19.725  1.00  0.00    -0.342 OA
BRANCH  65  70
ATOM     70  O   UNL     1       6.294   9.061 -20.537  1.00  0.00    -0.387 OA
ATOM     71  H   UNL     1       5.453   8.599 -20.319  1.00  0.00    +0.211 HD
ENDBRANCH  65  70
BRANCH  66  72
ATOM     72  O   UNL     1       7.448   8.613 -18.108  1.00  0.00    -0.385 OA
ATOM     73  H   UNL     1       8.399   8.436 -17.974  1.00  0.00    +0.211 HD
ENDBRANCH  66  72
BRANCH  67  74
ATOM     74  C   UNL     1       7.712  11.212 -21.947  1.00  0.00    +0.191 C 
BRANCH  74  75
ATOM     75  O   UNL     1       6.678  10.618 -22.731  1.00  0.00    -0.394 OA
ATOM     76  H   UNL     1       5.832  10.808 -22.273  1.00  0.00    +0.210 HD
ENDBRANCH  74  75
ENDBRANCH  67  74
BRANCH  68  77
ATOM     77  O   UNL     1       8.382  12.210 -17.870  1.00  0.00    -0.366 OA
ATOM     78  H   UNL     1       8.949  12.744 -18.458  1.00  0.00    +0.213 HD
ENDBRANCH  68  77
ENDBRANCH  63  64
ENDBRANCH  60  63
ENDBRANCH  52  53
ENDBRANCH   5  52
TORSDOF 27
ENDMDL
MODEL 5
REMARK VINA RESULT:    -8.068      1.539      2.368
REMARK INTER + INTRA:         -21.188
REMARK INTER:                 -18.590
REMARK INTRA:                  -2.597
REMARK UNBOUND:                -3.686
REMARK SMILES OC[C@@H]1O[C@H](O[C@H]2[C@@H]3OC[C@H]2O[C@@H](O[C@@H]2[C@H](O)[C@@H](O[C@@H]4[C@@H]5OC[C@H]4O[C@H](O[C@@H]4[C@@H](O)[C@H](O)O[C@@H](CO)[C@H]4O)[C@@H]5O)O[C@H](CO)[C@H]2O)[C@H]3O)[C@@H](O)[C@H](O[C@@H]2O[C@@H]3CO[C@H]([C@H]2O)[C@@H]3O)[C@H]1O
REMARK SMILES IDX 15 1 45 2 42 3 41 4 18 5 16 6 14 7 13 8 7 9 11 10 8 11 10 12
REMARK SMILES IDX 12 13 9 14 47 15 6 16 5 17 51 18 63 19 49 20 3 21 4 22 52 23
REMARK SMILES IDX 53 24 56 25 55 26 57 27 61 28 54 29 58 30 59 31 62 32 60 34
REMARK SMILES IDX 64 36 50 38 2 40 1 41 48 43 46 45 17 47 43 49 44 50 19 52
REMARK SMILES IDX 20 53 24 54 21 55 23 56 25 57 22 58 39 59 26 60 40 61 27 63
REMARK SMILES IDX 28 64 37 65 29 66 34 67 31 68 33 69 38 70 30 72 35 74 36 75
REMARK SMILES IDX 32 77
REMARK H PARENT 62 33 60 35 64 37 50 39 1 42 48 44 46 46 17 48 44 51 40 62
REMARK H PARENT 38 71 30 73 36 76 32 78
ROOT
ATOM      1  C   UNL     1       2.897  10.465 -11.493  1.00  0.00    +0.186 C 
ATOM      2  C   UNL     1       4.361  10.623 -11.955  1.00  0.00    +0.177 C 
ATOM      3  C   UNL     1       5.150   9.298 -11.872  1.00  0.00    +0.178 C 
ATOM      4  O   UNL     1       4.543   8.378 -10.963  1.00  0.00    -0.341 OA
ATOM      5  C   UNL     1       3.249   7.953 -11.395  1.00  0.00    +0.282 C 
ATOM      6  C   UNL     1       2.385   9.104 -11.982  1.00  0.00    +0.202 C 
ENDROOT
BRANCH   1   7
ATOM      7  O   UNL     1       2.672  10.502 -10.062  1.00  0.00    -0.341 OA
BRANCH   7   8
ATOM      8  C   UNL     1       1.510   9.780  -9.635  1.00  0.00    +0.282 C 
ATOM      9  C   UNL     1      -0.033  10.455  -7.235  1.00  0.00    +0.184 C 
ATOM     10  C   UNL     1       0.250  11.432  -8.368  1.00  0.00    +0.179 C 
ATOM     11  C   UNL     1       1.394   9.931  -7.089  1.00  0.00    +0.184 C 
ATOM     12  C   UNL     1       1.525  12.110  -7.864  1.00  0.00    +0.195 C 
ATOM     13  O   UNL     1       0.399  10.690  -9.599  1.00  0.00    -0.341 OA
ATOM     14  O   UNL     1       2.243  11.105  -7.113  1.00  0.00    -0.370 OA
ATOM     15  C   UNL     1       1.757   9.044  -8.289  1.00  0.00    +0.202 C 
BRANCH   9  16
ATOM     16  O   UNL     1      -0.938   9.407  -7.554  1.00  0.00    -0.341 OA
BRANCH  16  17
ATOM     17  C   UNL     1      -1.136   8.438  -6.507  1.00  0.00    +0.282 C 
ATOM     18  C   UNL     1      -2.093   6.064  -6.240  1.00  0.00    +0.186 C 
ATOM     19  C   UNL     1      -2.654   6.667  -4.944  1.00  0.00    +0.177 C 
ATOM     20  C   UNL     1      -1.567   7.133  -7.211  1.00  0.00    +0.202 C 
ATOM     21  C   UNL     1      -3.125   8.112  -5.118  1.00  0.00    +0.178 C 
ATOM     22  O   UNL     1      -2.075   8.966  -5.579  1.00  0.00    -0.341 OA
BRANCH  18  23
ATOM     23  O   UNL     1      -3.162   5.315  -6.861  1.00  0.00    -0.341 OA
BRANCH  23  24
ATOM     24  C   UNL     1      -3.614   4.197  -6.087  1.00  0.00    +0.282 C 
ATOM     25  C   UNL     1      -1.462   2.909  -7.636  1.00  0.00    +0.195 C 
ATOM     26  C   UNL     1      -1.861   2.503  -6.219  1.00  0.00    +0.178 C 
ATOM     27  O   UNL     1      -2.640   2.710  -8.454  1.00  0.00    -0.370 OA
ATOM     28  C   UNL     1      -2.866   1.406  -6.513  1.00  0.00    +0.177 C 
ATOM     29  O   UNL     1      -2.490   3.553  -5.461  1.00  0.00    -0.341 OA
ATOM     30  C   UNL     1      -3.652   2.141  -7.594  1.00  0.00    +0.183 C 
ATOM     31  C   UNL     1      -4.492   3.263  -6.967  1.00  0.00    +0.202 C 
BRANCH  28  32
ATOM     32  O   UNL     1      -3.649   1.030  -5.388  1.00  0.00    -0.387 OA
ATOM     33  H   UNL     1      -3.182   0.299  -4.940  1.00  0.00    +0.211 HD
ENDBRANCH  28  32
BRANCH  31  34
ATOM     34  O   UNL     1      -5.561   2.696  -6.188  1.00  0.00    -0.385 OA
ATOM     35  H   UNL     1      -6.334   3.291  -6.299  1.00  0.00    +0.211 HD
ENDBRANCH  31  34
ENDBRANCH  23  24
ENDBRANCH  18  23
BRANCH  19  36
ATOM     36  O   UNL     1      -1.598   6.644  -3.965  1.00  0.00    -0.387 OA
ATOM     37  H   UNL     1      -1.392   5.712  -3.768  1.00  0.00    +0.211 HD
ENDBRANCH  19  36
BRANCH  20  38
ATOM     38  O   UNL     1      -0.472   6.592  -7.977  1.00  0.00    -0.385 OA
ATOM     39  H   UNL     1      -0.052   5.913  -7.409  1.00  0.00    +0.211 HD
ENDBRANCH  20  38
BRANCH  21  40
ATOM     40  C   UNL     1      -4.369   8.290  -5.999  1.00  0.00    +0.191 C 
BRANCH  40  41
ATOM     41  O   UNL     1      -5.338   7.288  -5.659  1.00  0.00    -0.394 OA
ATOM     42  H   UNL     1      -5.565   6.852  -6.512  1.00  0.00    +0.210 HD
ENDBRANCH  40  41
ENDBRANCH  21  40
ENDBRANCH  16  17
ENDBRANCH   9  16
BRANCH  15  43
ATOM     43  O   UNL     1       3.116   8.598  -8.185  1.00  0.00    -0.385 OA
ATOM     44  H   UNL     1       3.631   9.248  -8.704  1.00  0.00    +0.211 HD
ENDBRANCH  15  43
ENDBRANCH   7   8
ENDBRANCH   1   7
BRANCH   2  45
ATOM     45  O   UNL     1       4.377  11.087 -13.316  1.00  0.00    -0.387 OA
ATOM     46  H   UNL     1       4.217  12.053 -13.272  1.00  0.00    +0.211 HD
ENDBRANCH   2  45
BRANCH   6  47
ATOM     47  O   UNL     1       1.006   8.938 -11.602  1.00  0.00    -0.385 OA
ATOM     48  H   UNL     1       0.558   9.765 -11.865  1.00  0.00    +0.211 HD
ENDBRANCH   6  47
BRANCH   3  49
ATOM     49  C   UNL     1       6.594   9.550 -11.416  1.00  0.00    +0.191 C 
BRANCH  49  50
ATOM     50  O   UNL     1       7.244  10.506 -12.250  1.00  0.00    -0.394 OA
ATOM     51  H   UNL     1       6.649  11.289 -12.292  1.00  0.00    +0.210 HD
ENDBRANCH  49  50
ENDBRANCH   3  49
BRANCH   5  52
ATOM     52  O   UNL     1       3.354   6.917 -12.379  1.00  0.00    -0.341 OA
BRANCH  52  53
ATOM     53  C   UNL     1       2.712   5.698 -11.997  1.00  0.00    +0.184 C 
ATOM     54  C   UNL     1       3.113   4.607 -12.976  1.00  0.00    +0.179 C 
ATOM     55  C   UNL     1       3.308   5.052 -10.740  1.00  0.00    +0.184 C 
ATOM     56  C   UNL     1       4.571   4.371 -12.573  1.00  0.00    +0.195 C 
ATOM     57  O   UNL     1       2.279   3.444 -12.780  1.00  0.00    -0.341 OA
ATOM     58  O   UNL     1       4.611   4.541 -11.134  1.00  0.00    -0.370 OA
ATOM     59  C   UNL     1       2.436   3.855 -10.340  1.00  0.00    +0.202 C 
ATOM     60  C   UNL     1       2.421   2.822 -11.497  1.00  0.00    +0.282 C 
BRANCH  59  61
ATOM     61  O   UNL     1       1.107   4.304 -10.030  1.00  0.00    -0.385 OA
ATOM     62  H   UNL     1       1.221   5.141  -9.537  1.00  0.00    +0.211 HD
ENDBRANCH  59  61
BRANCH  60  63
ATOM     63  O   UNL     1       1.290   1.965 -11.298  1.00  0.00    -0.341 OA
BRANCH  63  64
ATOM     64  C   UNL     1       1.469   0.982 -10.265  1.00  0.00    +0.186 C 
ATOM     65  C   UNL     1       0.072   0.665  -9.689  1.00  0.00    +0.177 C 
ATOM     66  C   UNL     1       2.134  -0.329 -10.741  1.00  0.00    +0.202 C 
ATOM     67  C   UNL     1      -0.759  -0.141 -10.709  1.00  0.00    +0.178 C 
ATOM     68  C   UNL     1       1.198  -1.095 -11.706  1.00  0.00    +0.279 C 
ATOM     69  O   UNL     1      -0.067  -1.338 -11.095  1.00  0.00    -0.342 OA
BRANCH  65  70
ATOM     70  O   UNL     1       0.190  -0.046  -8.447  1.00  0.00    -0.387 OA
ATOM     71  H   UNL     1       1.151  -0.196  -8.296  1.00  0.00    +0.211 HD
ENDBRANCH  65  70
BRANCH  66  72
ATOM     72  O   UNL     1       2.425  -1.127  -9.575  1.00  0.00    -0.385 OA
ATOM     73  H   UNL     1       3.243  -0.774  -9.175  1.00  0.00    +0.211 HD
ENDBRANCH  66  72
BRANCH  67  74
ATOM     74  C   UNL     1      -2.143  -0.535 -10.161  1.00  0.00    +0.191 C 
BRANCH  74  75
ATOM     75  O   UNL     1      -2.584  -1.823 -10.588  1.00  0.00    -0.394 OA
ATOM     76  H   UNL     1      -2.262  -2.467  -9.921  1.00  0.00    +0.210 HD
ENDBRANCH  74  75
ENDBRANCH  67  74
BRANCH  68  77
ATOM     77  O   UNL     1       1.045  -0.476 -12.971  1.00  0.00    -0.366 OA
ATOM     78  H   UNL     1       1.780  -0.762 -13.547  1.00  0.00    +0.213 HD
ENDBRANCH  68  77
ENDBRANCH  63  64
ENDBRANCH  60  63
ENDBRANCH  52  53
ENDBRANCH   5  52
TORSDOF 27
ENDMDL
MODEL 6
REMARK VINA RESULT:    -8.023     23.347     29.591
REMARK INTER + INTRA:         -21.088
REMARK INTER:                 -17.075
REMARK INTRA:                  -4.013
REMARK UNBOUND:                -3.686
REMARK SMILES OC[C@@H]1O[C@H](O[C@H]2[C@@H]3OC[C@H]2O[C@@H](O[C@@H]2[C@H](O)[C@@H](O[C@@H]4[C@@H]5OC[C@H]4O[C@H](O[C@@H]4[C@@H](O)[C@H](O)O[C@@H](CO)[C@H]4O)[C@@H]5O)O[C@H](CO)[C@H]2O)[C@H]3O)[C@@H](O)[C@H](O[C@@H]2O[C@@H]3CO[C@H]([C@H]2O)[C@@H]3O)[C@H]1O
REMARK SMILES IDX 15 1 45 2 42 3 41 4 18 5 16 6 14 7 13 8 7 9 11 10 8 11 10 12
REMARK SMILES IDX 12 13 9 14 47 15 6 16 5 17 51 18 63 19 49 20 3 21 4 22 52 23
REMARK SMILES IDX 53 24 56 25 55 26 57 27 61 28 54 29 58 30 59 31 62 32 60 34
REMARK SMILES IDX 64 36 50 38 2 40 1 41 48 43 46 45 17 47 43 49 44 50 19 52
REMARK SMILES IDX 20 53 24 54 21 55 23 56 25 57 22 58 39 59 26 60 40 61 27 63
REMARK SMILES IDX 28 64 37 65 29 66 34 67 31 68 33 69 38 70 30 72 35 74 36 75
REMARK SMILES IDX 32 77
REMARK H PARENT 62 33 60 35 64 37 50 39 1 42 48 44 46 46 17 48 44 51 40 62
REMARK H PARENT 38 71 30 73 36 76 32 78
ROOT
ATOM      1  C   UNL     1       4.608 -17.750 -10.196  1.00  0.00    +0.186 C 
ATOM      2  C   UNL     1       5.752 -16.775 -10.542  1.00  0.00    +0.177 C 
ATOM      3  C   UNL     1       7.033 -17.510 -10.996  1.00  0.00    +0.178 C 
ATOM      4  O   UNL     1       7.053 -18.864 -10.543  1.00  0.00    -0.341 OA
ATOM      5  C   UNL     1       6.010 -19.652 -11.121  1.00  0.00    +0.282 C 
ATOM      6  C   UNL     1       4.647 -18.910 -11.199  1.00  0.00    +0.202 C 
ENDROOT
BRANCH   1   7
ATOM      7  O   UNL     1       4.652 -18.344  -8.876  1.00  0.00    -0.341 OA
BRANCH   7   8
ATOM      8  C   UNL     1       4.022 -19.628  -8.791  1.00  0.00    +0.282 C 
ATOM      9  C   UNL     1       2.779 -20.673  -6.349  1.00  0.00    +0.184 C 
ATOM     10  C   UNL     1       2.401 -19.348  -6.998  1.00  0.00    +0.179 C 
ATOM     11  C   UNL     1       4.292 -20.470  -6.395  1.00  0.00    +0.184 C 
ATOM     12  C   UNL     1       3.308 -18.377  -6.243  1.00  0.00    +0.195 C 
ATOM     13  O   UNL     1       2.648 -19.436  -8.419  1.00  0.00    -0.341 OA
ATOM     14  O   UNL     1       4.515 -19.114  -5.937  1.00  0.00    -0.370 OA
ATOM     15  C   UNL     1       4.797 -20.583  -7.841  1.00  0.00    +0.202 C 
BRANCH   9  16
ATOM     16  O   UNL     1       2.391 -21.832  -7.075  1.00  0.00    -0.341 OA
BRANCH  16  17
ATOM     17  C   UNL     1       2.558 -23.075  -6.365  1.00  0.00    +0.282 C 
ATOM     18  C   UNL     1       2.664 -25.591  -6.892  1.00  0.00    +0.186 C 
ATOM     19  C   UNL     1       1.831 -25.678  -5.604  1.00  0.00    +0.177 C 
ATOM     20  C   UNL     1       2.749 -24.160  -7.446  1.00  0.00    +0.202 C 
ATOM     21  C   UNL     1       0.812 -24.545  -5.481  1.00  0.00    +0.178 C 
ATOM     22  O   UNL     1       1.434 -23.258  -5.513  1.00  0.00    -0.341 OA
BRANCH  18  23
ATOM     23  O   UNL     1       2.040 -26.461  -7.864  1.00  0.00    -0.341 OA
BRANCH  23  24
ATOM     24  C   UNL     1       2.932 -27.427  -8.435  1.00  0.00    +0.282 C 
ATOM     25  C   UNL     1       0.830 -29.219  -7.406  1.00  0.00    +0.195 C 
ATOM     26  C   UNL     1       1.667 -29.503  -8.652  1.00  0.00    +0.178 C 
ATOM     27  O   UNL     1       1.770 -29.126  -6.308  1.00  0.00    -0.370 OA
ATOM     28  C   UNL     1       2.796 -30.318  -8.052  1.00  0.00    +0.177 C 
ATOM     29  O   UNL     1       2.197 -28.325  -9.286  1.00  0.00    -0.341 OA
ATOM     30  C   UNL     1       3.075 -29.420  -6.852  1.00  0.00    +0.183 C 
ATOM     31  C   UNL     1       3.753 -28.120  -7.310  1.00  0.00    +0.202 C 
BRANCH  28  32
ATOM     32  O   UNL     1       3.909 -30.481  -8.921  1.00  0.00    -0.387 OA
ATOM     33  H   UNL     1       3.850 -31.376  -9.306  1.00  0.00    +0.211 HD
ENDBRANCH  28  32
BRANCH  31  34
ATOM     34  O   UNL     1       5.090 -28.399  -7.763  1.00  0.00    -0.385 OA
ATOM     35  H   UNL     1       5.028 -29.188  -8.347  1.00  0.00    +0.211 HD
ENDBRANCH  31  34
ENDBRANCH  23  24
ENDBRANCH  18  23
BRANCH  19  36
ATOM     36  O   UNL     1       2.745 -25.596  -4.494  1.00  0.00    -0.387 OA
ATOM     37  H   UNL     1       3.425 -24.933  -4.713  1.00  0.00    +0.211 HD
ENDBRANCH  19  36
BRANCH  20  38
ATOM     38  O   UNL     1       4.011 -23.978  -8.120  1.00  0.00    -0.385 OA
ATOM     39  H   UNL     1       4.664 -23.765  -7.421  1.00  0.00    +0.211 HD
ENDBRANCH  20  38
BRANCH  21  40
ATOM     40  C   UNL     1      -0.342 -24.593  -6.491  1.00  0.00    +0.191 C 
BRANCH  40  41
ATOM     41  O   UNL     1      -1.055 -23.348  -6.456  1.00  0.00    -0.394 OA
ATOM     42  H   UNL     1      -0.798 -22.883  -7.285  1.00  0.00    +0.210 HD
ENDBRANCH  40  41
ENDBRANCH  21  40
ENDBRANCH  16  17
ENDBRANCH   9  16
BRANCH  15  43
ATOM     43  O   UNL     1       6.208 -20.335  -7.896  1.00  0.00    -0.385 OA
ATOM     44  H   UNL     1       6.405 -20.231  -8.849  1.00  0.00    +0.211 HD
ENDBRANCH  15  43
ENDBRANCH   7   8
ENDBRANCH   1   7
BRANCH   2  45
ATOM     45  O   UNL     1       5.323 -15.900 -11.598  1.00  0.00    -0.387 OA
ATOM     46  H   UNL     1       4.733 -16.436 -12.168  1.00  0.00    +0.211 HD
ENDBRANCH   2  45
BRANCH   6  47
ATOM     47  O   UNL     1       3.566 -19.823 -10.931  1.00  0.00    -0.385 OA
ATOM     48  H   UNL     1       3.147 -19.501 -10.109  1.00  0.00    +0.211 HD
ENDBRANCH   6  47
BRANCH   3  49
ATOM     49  C   UNL     1       8.286 -16.801 -10.465  1.00  0.00    +0.191 C 
BRANCH  49  50
ATOM     50  O   UNL     1       9.190 -16.479 -11.519  1.00  0.00    -0.394 OA
ATOM     51  H   UNL     1       8.963 -17.073 -12.270  1.00  0.00    +0.210 HD
ENDBRANCH  49  50
ENDBRANCH   3  49
BRANCH   5  52
ATOM     52  O   UNL     1       6.369 -20.084 -12.440  1.00  0.00    -0.341 OA
BRANCH  52  53
ATOM     53  C   UNL     1       6.286 -21.500 -12.621  1.00  0.00    +0.184 C 
ATOM     54  C   UNL     1       4.982 -21.826 -13.329  1.00  0.00    +0.179 C 
ATOM     55  C   UNL     1       7.228 -22.043 -13.701  1.00  0.00    +0.184 C 
ATOM     56  C   UNL     1       5.277 -21.314 -14.741  1.00  0.00    +0.195 C 
ATOM     57  O   UNL     1       4.744 -23.251 -13.284  1.00  0.00    -0.341 OA
ATOM     58  O   UNL     1       6.682 -21.591 -14.970  1.00  0.00    -0.370 OA
ATOM     59  C   UNL     1       7.170 -23.575 -13.684  1.00  0.00    +0.202 C 
ATOM     60  C   UNL     1       5.719 -24.036 -13.982  1.00  0.00    +0.282 C 
BRANCH  59  61
ATOM     61  O   UNL     1       7.617 -24.064 -12.409  1.00  0.00    -0.385 OA
ATOM     62  H   UNL     1       7.182 -24.932 -12.293  1.00  0.00    +0.211 HD
ENDBRANCH  59  61
BRANCH  60  63
ATOM     63  O   UNL     1       5.595 -25.391 -13.532  1.00  0.00    -0.341 OA
BRANCH  63  64
ATOM     64  C   UNL     1       4.400 -25.656 -12.778  1.00  0.00    +0.186 C 
ATOM     65  C   UNL     1       4.023 -27.132 -13.024  1.00  0.00    +0.177 C 
ATOM     66  C   UNL     1       4.536 -25.409 -11.259  1.00  0.00    +0.202 C 
ATOM     67  C   UNL     1       5.023 -28.067 -12.310  1.00  0.00    +0.178 C 
ATOM     68  C   UNL     1       5.507 -26.435 -10.626  1.00  0.00    +0.279 C 
ATOM     69  O   UNL     1       5.086 -27.767 -10.908  1.00  0.00    -0.342 OA
BRANCH  65  70
ATOM     70  O   UNL     1       2.679 -27.388 -12.585  1.00  0.00    -0.387 OA
ATOM     71  H   UNL     1       2.567 -28.366 -12.567  1.00  0.00    +0.211 HD
ENDBRANCH  65  70
BRANCH  66  72
ATOM     72  O   UNL     1       3.224 -25.522 -10.672  1.00  0.00    -0.385 OA
ATOM     73  H   UNL     1       3.341 -25.611  -9.707  1.00  0.00    +0.211 HD
ENDBRANCH  66  72
BRANCH  67  74
ATOM     74  C   UNL     1       4.659 -29.554 -12.474  1.00  0.00    +0.191 C 
BRANCH  74  75
ATOM     75  O   UNL     1       3.590 -29.979 -11.629  1.00  0.00    -0.394 OA
ATOM     76  H   UNL     1       3.862 -30.838 -11.240  1.00  0.00    +0.210 HD
ENDBRANCH  74  75
ENDBRANCH  67  74
BRANCH  68  77
ATOM     77  O   UNL     1       6.864 -26.240 -10.984  1.00  0.00    -0.366 OA
ATOM     78  H   UNL     1       7.241 -25.551 -10.406  1.00  0.00    +0.213 HD
ENDBRANCH  68  77
ENDBRANCH  63  64
ENDBRANCH  60  63
ENDBRANCH  52  53
ENDBRANCH   5  52
TORSDOF 27
ENDMDL
MODEL 7
REMARK VINA RESULT:    -7.866     22.076     29.414
REMARK INTER + INTRA:         -20.749
REMARK INTER:                 -17.577
REMARK INTRA:                  -3.171
REMARK UNBOUND:                -3.686
REMARK SMILES OC[C@@H]1O[C@H](O[C@H]2[C@@H]3OC[C@H]2O[C@@H](O[C@@H]2[C@H](O)[C@@H](O[C@@H]4[C@@H]5OC[C@H]4O[C@H](O[C@@H]4[C@@H](O)[C@H](O)O[C@@H](CO)[C@H]4O)[C@@H]5O)O[C@H](CO)[C@H]2O)[C@H]3O)[C@@H](O)[C@H](O[C@@H]2O[C@@H]3CO[C@H]([C@H]2O)[C@@H]3O)[C@H]1O
REMARK SMILES IDX 15 1 45 2 42 3 41 4 18 5 16 6 14 7 13 8 7 9 11 10 8 11 10 12
REMARK SMILES IDX 12 13 9 14 47 15 6 16 5 17 51 18 63 19 49 20 3 21 4 22 52 23
REMARK SMILES IDX 53 24 56 25 55 26 57 27 61 28 54 29 58 30 59 31 62 32 60 34
REMARK SMILES IDX 64 36 50 38 2 40 1 41 48 43 46 45 17 47 43 49 44 50 19 52
REMARK SMILES IDX 20 53 24 54 21 55 23 56 25 57 22 58 39 59 26 60 40 61 27 63
REMARK SMILES IDX 28 64 37 65 29 66 34 67 31 68 33 69 38 70 30 72 35 74 36 75
REMARK SMILES IDX 32 77
REMARK H PARENT 62 33 60 35 64 37 50 39 1 42 48 44 46 46 17 48 44 51 40 62
REMARK H PARENT 38 71 30 73 36 76 32 78
ROOT
ATOM      1  C   UNL     1      -7.917 -18.918  -1.534  1.00  0.00    +0.186 C 
ATOM      2  C   UNL     1      -9.327 -19.301  -1.038  1.00  0.00    +0.177 C 
ATOM      3  C   UNL     1      -9.530 -18.980   0.459  1.00  0.00    +0.178 C 
ATOM      4  O   UNL     1      -8.285 -18.872   1.150  1.00  0.00    -0.341 OA
ATOM      5  C   UNL     1      -7.496 -17.772   0.691  1.00  0.00    +0.282 C 
ATOM      6  C   UNL     1      -7.511 -17.604  -0.854  1.00  0.00    +0.202 C 
ENDROOT
BRANCH   1   7
ATOM      7  O   UNL     1      -6.862 -19.870  -1.257  1.00  0.00    -0.341 OA
BRANCH   7   8
ATOM      8  C   UNL     1      -6.662 -20.839  -2.295  1.00  0.00    +0.282 C 
ATOM      9  C   UNL     1      -5.521 -23.501  -1.837  1.00  0.00    +0.184 C 
ATOM     10  C   UNL     1      -6.747 -22.963  -1.112  1.00  0.00    +0.179 C 
ATOM     11  C   UNL     1      -4.645 -22.265  -1.649  1.00  0.00    +0.184 C 
ATOM     12  C   UNL     1      -6.111 -22.363   0.142  1.00  0.00    +0.195 C 
ATOM     13  O   UNL     1      -7.420 -22.015  -1.969  1.00  0.00    -0.341 OA
ATOM     14  O   UNL     1      -4.808 -21.881  -0.262  1.00  0.00    -0.370 OA
ATOM     15  C   UNL     1      -5.152 -21.116  -2.535  1.00  0.00    +0.202 C 
BRANCH   9  16
ATOM     16  O   UNL     1      -5.716 -23.792  -3.215  1.00  0.00    -0.341 OA
BRANCH  16  17
ATOM     17  C   UNL     1      -6.652 -24.853  -3.484  1.00  0.00    +0.282 C 
ATOM     18  C   UNL     1      -6.720 -27.074  -4.782  1.00  0.00    +0.186 C 
ATOM     19  C   UNL     1      -8.127 -26.574  -5.141  1.00  0.00    +0.177 C 
ATOM     20  C   UNL     1      -5.840 -25.973  -4.168  1.00  0.00    +0.202 C 
ATOM     21  C   UNL     1      -8.174 -25.066  -5.389  1.00  0.00    +0.178 C 
ATOM     22  O   UNL     1      -7.723 -24.322  -4.255  1.00  0.00    -0.341 OA
BRANCH  18  23
ATOM     23  O   UNL     1      -6.117 -27.567  -6.000  1.00  0.00    -0.341 OA
BRANCH  23  24
ATOM     24  C   UNL     1      -5.539 -28.872  -5.874  1.00  0.00    +0.282 C 
ATOM     25  C   UNL     1      -7.675 -29.447  -7.822  1.00  0.00    +0.195 C 
ATOM     26  C   UNL     1      -6.333 -30.175  -7.780  1.00  0.00    +0.178 C 
ATOM     27  O   UNL     1      -8.303 -29.695  -6.542  1.00  0.00    -0.370 OA
ATOM     28  C   UNL     1      -6.682 -31.357  -6.897  1.00  0.00    +0.177 C 
ATOM     29  O   UNL     1      -5.269 -29.413  -7.180  1.00  0.00    -0.341 OA
ATOM     30  C   UNL     1      -7.427 -30.584  -5.814  1.00  0.00    +0.183 C 
ATOM     31  C   UNL     1      -6.438 -29.766  -4.972  1.00  0.00    +0.202 C 
BRANCH  28  32
ATOM     32  O   UNL     1      -5.549 -32.070  -6.419  1.00  0.00    -0.387 OA
ATOM     33  H   UNL     1      -5.789 -32.453  -5.554  1.00  0.00    +0.211 HD
ENDBRANCH  28  32
BRANCH  31  34
ATOM     34  O   UNL     1      -5.629 -30.648  -4.174  1.00  0.00    -0.385 OA
ATOM     35  H   UNL     1      -4.705 -30.543  -4.490  1.00  0.00    +0.211 HD
ENDBRANCH  31  34
ENDBRANCH  23  24
ENDBRANCH  18  23
BRANCH  19  36
ATOM     36  O   UNL     1      -8.991 -26.883  -4.031  1.00  0.00    -0.387 OA
ATOM     37  H   UNL     1      -9.461 -26.067  -3.780  1.00  0.00    +0.211 HD
ENDBRANCH  19  36
BRANCH  20  38
ATOM     38  O   UNL     1      -4.913 -26.562  -3.234  1.00  0.00    -0.385 OA
ATOM     39  H   UNL     1      -5.006 -26.054  -2.402  1.00  0.00    +0.211 HD
ENDBRANCH  20  38
BRANCH  21  40
ATOM     40  C   UNL     1      -7.444 -24.590  -6.652  1.00  0.00    +0.191 C 
BRANCH  40  41
ATOM     41  O   UNL     1      -7.619 -25.560  -7.695  1.00  0.00    -0.394 OA
ATOM     42  H   UNL     1      -6.707 -25.834  -7.945  1.00  0.00    +0.210 HD
ENDBRANCH  40  41
ENDBRANCH  21  40
ENDBRANCH  16  17
ENDBRANCH   9  16
BRANCH  15  43
ATOM     43  O   UNL     1      -4.368 -19.937  -2.317  1.00  0.00    -0.385 OA
ATOM     44  H   UNL     1      -4.035 -20.025  -1.401  1.00  0.00    +0.211 HD
ENDBRANCH  15  43
ENDBRANCH   7   8
ENDBRANCH   1   7
BRANCH   2  45
ATOM     45  O   UNL     1     -10.308 -18.581  -1.803  1.00  0.00    -0.387 OA
ATOM     46  H   UNL     1     -10.631 -17.865  -1.218  1.00  0.00    +0.211 HD
ENDBRANCH   2  45
BRANCH   6  47
ATOM     47  O   UNL     1      -6.213 -17.193  -1.324  1.00  0.00    -0.385 OA
ATOM     48  H   UNL     1      -5.671 -17.062  -0.522  1.00  0.00    +0.211 HD
ENDBRANCH   6  47
BRANCH   3  49
ATOM     49  C   UNL     1     -10.371 -20.067   1.142  1.00  0.00    +0.191 C 
BRANCH  49  50
ATOM     50  O   UNL     1     -11.010 -20.909   0.185  1.00  0.00    -0.394 OA
ATOM     51  H   UNL     1     -11.930 -21.047   0.506  1.00  0.00    +0.210 HD
ENDBRANCH  49  50
ENDBRANCH   3  49
BRANCH   5  52
ATOM     52  O   UNL     1      -7.936 -16.546   1.287  1.00  0.00    -0.341 OA
BRANCH  52  53
ATOM     53  C   UNL     1      -7.709 -15.397   0.466  1.00  0.00    +0.184 C 
ATOM     54  C   UNL     1      -8.725 -14.328   0.830  1.00  0.00    +0.179 C 
ATOM     55  C   UNL     1      -6.454 -14.603   0.845  1.00  0.00    +0.184 C 
ATOM     56  C   UNL     1      -8.205 -13.882   2.200  1.00  0.00    +0.195 C 
ATOM     57  O   UNL     1      -8.697 -13.271  -0.155  1.00  0.00    -0.341 OA
ATOM     58  O   UNL     1      -6.760 -13.955   2.111  1.00  0.00    -0.370 OA
ATOM     59  C   UNL     1      -6.229 -13.505  -0.201  1.00  0.00    +0.202 C 
ATOM     60  C   UNL     1      -7.456 -12.557  -0.222  1.00  0.00    +0.282 C 
BRANCH  59  61
ATOM     61  O   UNL     1      -6.012 -14.100  -1.491  1.00  0.00    -0.385 OA
ATOM     62  H   UNL     1      -5.455 -13.465  -1.983  1.00  0.00    +0.211 HD
ENDBRANCH  59  61
BRANCH  60  63
ATOM     63  O   UNL     1      -7.429 -11.841  -1.463  1.00  0.00    -0.341 OA
BRANCH  63  64
ATOM     64  C   UNL     1      -6.893 -10.512  -1.367  1.00  0.00    +0.186 C 
ATOM     65  C   UNL     1      -5.355 -10.641  -1.312  1.00  0.00    +0.177 C 
ATOM     66  C   UNL     1      -7.286  -9.578  -2.534  1.00  0.00    +0.202 C 
ATOM     67  C   UNL     1      -4.805 -11.071  -2.688  1.00  0.00    +0.178 C 
ATOM     68  C   UNL     1      -6.633 -10.055  -3.854  1.00  0.00    +0.279 C 
ATOM     69  O   UNL     1      -5.218 -10.152  -3.710  1.00  0.00    -0.342 OA
BRANCH  65  70
ATOM     70  O   UNL     1      -4.761  -9.405  -0.885  1.00  0.00    -0.387 OA
ATOM     71  H   UNL     1      -4.096  -9.159  -1.568  1.00  0.00    +0.211 HD
ENDBRANCH  65  70
BRANCH  66  72
ATOM     72  O   UNL     1      -6.847  -8.245  -2.203  1.00  0.00    -0.385 OA
ATOM     73  H   UNL     1      -6.735  -7.757  -3.041  1.00  0.00    +0.211 HD
ENDBRANCH  66  72
BRANCH  67  74
ATOM     74  C   UNL     1      -3.268 -11.159  -2.706  1.00  0.00    +0.191 C 
BRANCH  74  75
ATOM     75  O   UNL     1      -2.695 -10.936  -3.994  1.00  0.00    -0.394 OA
ATOM     76  H   UNL     1      -2.360 -10.014  -3.998  1.00  0.00    +0.210 HD
ENDBRANCH  74  75
ENDBRANCH  67  74
BRANCH  68  77
ATOM     77  O   UNL     1      -7.180 -11.258  -4.365  1.00  0.00    -0.366 OA
ATOM     78  H   UNL     1      -7.156 -11.220  -5.339  1.00  0.00    +0.213 HD
ENDBRANCH  68  77
ENDBRANCH  63  64
ENDBRANCH  60  63
ENDBRANCH  52  53
ENDBRANCH   5  52
TORSDOF 27
ENDMDL
MODEL 8
REMARK VINA RESULT:    -7.803     21.637     29.030
REMARK INTER + INTRA:         -20.611
REMARK INTER:                 -17.792
REMARK INTRA:                  -2.819
REMARK UNBOUND:                -3.686
REMARK SMILES OC[C@@H]1O[C@H](O[C@H]2[C@@H]3OC[C@H]2O[C@@H](O[C@@H]2[C@H](O)[C@@H](O[C@@H]4[C@@H]5OC[C@H]4O[C@H](O[C@@H]4[C@@H](O)[C@H](O)O[C@@H](CO)[C@H]4O)[C@@H]5O)O[C@H](CO)[C@H]2O)[C@H]3O)[C@@H](O)[C@H](O[C@@H]2O[C@@H]3CO[C@H]([C@H]2O)[C@@H]3O)[C@H]1O
REMARK SMILES IDX 15 1 45 2 42 3 41 4 18 5 16 6 14 7 13 8 7 9 11 10 8 11 10 12
REMARK SMILES IDX 12 13 9 14 47 15 6 16 5 17 51 18 63 19 49 20 3 21 4 22 52 23
REMARK SMILES IDX 53 24 56 25 55 26 57 27 61 28 54 29 58 30 59 31 62 32 60 34
REMARK SMILES IDX 64 36 50 38 2 40 1 41 48 43 46 45 17 47 43 49 44 50 19 52
REMARK SMILES IDX 20 53 24 54 21 55 23 56 25 57 22 58 39 59 26 60 40 61 27 63
REMARK SMILES IDX 28 64 37 65 29 66 34 67 31 68 33 69 38 70 30 72 35 74 36 75
REMARK SMILES IDX 32 77
REMARK H PARENT 62 33 60 35 64 37 50 39 1 42 48 44 46 46 17 48 44 51 40 62
REMARK H PARENT 38 71 30 73 36 76 32 78
ROOT
ATOM      1  C   UNL     1      -7.054 -18.418  -1.784  1.00  0.00    +0.186 C 
ATOM      2  C   UNL     1      -8.559 -18.128  -1.957  1.00  0.00    +0.177 C 
ATOM      3  C   UNL     1      -9.264 -17.857  -0.609  1.00  0.00    +0.178 C 
ATOM      4  O   UNL     1      -8.528 -18.398   0.489  1.00  0.00    -0.341 OA
ATOM      5  C   UNL     1      -7.256 -17.769   0.661  1.00  0.00    +0.282 C 
ATOM      6  C   UNL     1      -6.513 -17.503  -0.678  1.00  0.00    +0.202 C 
ENDROOT
BRANCH   1   7
ATOM      7  O   UNL     1      -6.703 -19.772  -1.409  1.00  0.00    -0.341 OA
BRANCH   7   8
ATOM      8  C   UNL     1      -6.869 -20.732  -2.461  1.00  0.00    +0.282 C 
ATOM      9  C   UNL     1      -6.104 -23.553  -2.225  1.00  0.00    +0.184 C 
ATOM     10  C   UNL     1      -7.061 -22.847  -1.274  1.00  0.00    +0.179 C 
ATOM     11  C   UNL     1      -5.020 -22.477  -2.219  1.00  0.00    +0.184 C 
ATOM     12  C   UNL     1      -6.104 -22.390  -0.173  1.00  0.00    +0.195 C 
ATOM     13  O   UNL     1      -7.728 -21.781  -1.986  1.00  0.00    -0.341 OA
ATOM     14  O   UNL     1      -4.846 -22.109  -0.829  1.00  0.00    -0.370 OA
ATOM     15  C   UNL     1      -5.500 -21.239  -2.992  1.00  0.00    +0.202 C 
BRANCH   9  16
ATOM     16  O   UNL     1      -6.608 -23.771  -3.536  1.00  0.00    -0.341 OA
BRANCH  16  17
ATOM     17  C   UNL     1      -5.736 -24.522  -4.402  1.00  0.00    +0.282 C 
ATOM     18  C   UNL     1      -5.934 -26.230  -6.317  1.00  0.00    +0.186 C 
ATOM     19  C   UNL     1      -4.742 -26.866  -5.586  1.00  0.00    +0.177 C 
ATOM     20  C   UNL     1      -6.648 -25.165  -5.469  1.00  0.00    +0.202 C 
ATOM     21  C   UNL     1      -4.870 -26.786  -4.064  1.00  0.00    +0.178 C 
ATOM     22  O   UNL     1      -4.993 -25.437  -3.606  1.00  0.00    -0.341 OA
BRANCH  18  23
ATOM     23  O   UNL     1      -6.852 -27.297  -6.647  1.00  0.00    -0.341 OA
BRANCH  23  24
ATOM     24  C   UNL     1      -7.293 -27.282  -8.010  1.00  0.00    +0.282 C 
ATOM     25  C   UNL     1      -8.913 -29.517  -6.974  1.00  0.00    +0.195 C 
ATOM     26  C   UNL     1      -9.364 -28.574  -8.089  1.00  0.00    +0.178 C 
ATOM     27  O   UNL     1      -7.711 -30.161  -7.460  1.00  0.00    -0.370 OA
ATOM     28  C   UNL     1      -8.902 -29.343  -9.311  1.00  0.00    +0.177 C 
ATOM     29  O   UNL     1      -8.731 -27.281  -8.057  1.00  0.00    -0.341 OA
ATOM     30  C   UNL     1      -7.504 -29.693  -8.811  1.00  0.00    +0.183 C 
ATOM     31  C   UNL     1      -6.617 -28.440  -8.799  1.00  0.00    +0.202 C 
BRANCH  28  32
ATOM     32  O   UNL     1      -8.909 -28.576 -10.508  1.00  0.00    -0.387 OA
ATOM     33  H   UNL     1      -9.738 -28.781 -10.980  1.00  0.00    +0.211 HD
ENDBRANCH  28  32
BRANCH  31  34
ATOM     34  O   UNL     1      -6.332 -28.030 -10.148  1.00  0.00    -0.385 OA
ATOM     35  H   UNL     1      -6.727 -27.137 -10.258  1.00  0.00    +0.211 HD
ENDBRANCH  31  34
ENDBRANCH  23  24
ENDBRANCH  18  23
BRANCH  19  36
ATOM     36  O   UNL     1      -3.559 -26.149  -5.985  1.00  0.00    -0.387 OA
ATOM     37  H   UNL     1      -3.693 -25.207  -5.773  1.00  0.00    +0.211 HD
ENDBRANCH  19  36
BRANCH  20  38
ATOM     38  O   UNL     1      -7.199 -24.152  -6.333  1.00  0.00    -0.385 OA
ATOM     39  H   UNL     1      -8.091 -24.467  -6.588  1.00  0.00    +0.211 HD
ENDBRANCH  20  38
BRANCH  21  40
ATOM     40  C   UNL     1      -5.985 -27.649  -3.457  1.00  0.00    +0.191 C 
BRANCH  40  41
ATOM     41  O   UNL     1      -5.976 -28.942  -4.081  1.00  0.00    -0.394 OA
ATOM     42  H   UNL     1      -6.126 -29.580  -3.347  1.00  0.00    +0.210 HD
ENDBRANCH  40  41
ENDBRANCH  21  40
ENDBRANCH  16  17
ENDBRANCH   9  16
BRANCH  15  43
ATOM     43  O   UNL     1      -4.509 -20.204  -2.939  1.00  0.00    -0.385 OA
ATOM     44  H   UNL     1      -4.688 -19.731  -2.102  1.00  0.00    +0.211 HD
ENDBRANCH  15  43
ENDBRANCH   7   8
ENDBRANCH   1   7
BRANCH   2  45
ATOM     45  O   UNL     1      -8.724 -16.978  -2.803  1.00  0.00    -0.387 OA
ATOM     46  H   UNL     1      -8.000 -17.025  -3.462  1.00  0.00    +0.211 HD
ENDBRANCH   2  45
BRANCH   6  47
ATOM     47  O   UNL     1      -5.098 -17.718  -0.516  1.00  0.00    -0.385 OA
ATOM     48  H   UNL     1      -4.917 -17.572   0.433  1.00  0.00    +0.211 HD
ENDBRANCH   6  47
BRANCH   3  49
ATOM     49  C   UNL     1     -10.672 -18.467  -0.597  1.00  0.00    +0.191 C 
BRANCH  49  50
ATOM     50  O   UNL     1     -11.358 -18.219  -1.822  1.00  0.00    -0.394 OA
ATOM     51  H   UNL     1     -10.707 -17.791  -2.423  1.00  0.00    +0.210 HD
ENDBRANCH  49  50
ENDBRANCH   3  49
BRANCH   5  52
ATOM     52  O   UNL     1      -7.393 -16.526   1.360  1.00  0.00    -0.341 OA
BRANCH  52  53
ATOM     53  C   UNL     1      -7.258 -15.378   0.518  1.00  0.00    +0.184 C 
ATOM     54  C   UNL     1      -8.359 -14.389   0.862  1.00  0.00    +0.179 C 
ATOM     55  C   UNL     1      -6.073 -14.477   0.884  1.00  0.00    +0.184 C 
ATOM     56  C   UNL     1      -7.880 -13.876   2.223  1.00  0.00    +0.195 C 
ATOM     57  O   UNL     1      -8.415 -13.351  -0.142  1.00  0.00    -0.341 OA
ATOM     58  O   UNL     1      -6.434 -13.834   2.137  1.00  0.00    -0.370 OA
ATOM     59  C   UNL     1      -5.936 -13.384  -0.182  1.00  0.00    +0.202 C 
ATOM     60  C   UNL     1      -7.237 -12.540  -0.221  1.00  0.00    +0.282 C 
BRANCH  59  61
ATOM     61  O   UNL     1      -5.669 -13.983  -1.461  1.00  0.00    -0.385 OA
ATOM     62  H   UNL     1      -4.694 -14.023  -1.533  1.00  0.00    +0.211 HD
ENDBRANCH  59  61
BRANCH  60  63
ATOM     63  O   UNL     1      -7.265 -11.847  -1.476  1.00  0.00    -0.341 OA
BRANCH  63  64
ATOM     64  C   UNL     1      -6.788 -10.493  -1.414  1.00  0.00    +0.186 C 
ATOM     65  C   UNL     1      -5.246 -10.549  -1.459  1.00  0.00    +0.177 C 
ATOM     66  C   UNL     1      -7.300  -9.583  -2.553  1.00  0.00    +0.202 C 
ATOM     67  C   UNL     1      -4.766 -10.956  -2.868  1.00  0.00    +0.178 C 
ATOM     68  C   UNL     1      -6.712 -10.031  -3.912  1.00  0.00    +0.279 C 
ATOM     69  O   UNL     1      -5.288 -10.060  -3.861  1.00  0.00    -0.342 OA
BRANCH  65  70
ATOM     70  O   UNL     1      -4.685  -9.285  -1.071  1.00  0.00    -0.387 OA
ATOM     71  H   UNL     1      -3.890  -9.483  -0.525  1.00  0.00    +0.211 HD
ENDBRANCH  65  70
BRANCH  66  72
ATOM     72  O   UNL     1      -6.905  -8.229  -2.250  1.00  0.00    -0.385 OA
ATOM     73  H   UNL     1      -6.784  -7.763  -3.099  1.00  0.00    +0.211 HD
ENDBRANCH  66  72
BRANCH  67  74
ATOM     74  C   UNL     1      -3.230 -10.970  -2.985  1.00  0.00    +0.191 C 
BRANCH  74  75
ATOM     75  O   UNL     1      -2.703 -12.211  -3.454  1.00  0.00    -0.394 OA
ATOM     76  H   UNL     1      -3.461 -12.827  -3.536  1.00  0.00    +0.210 HD
ENDBRANCH  74  75
ENDBRANCH  67  74
BRANCH  68  77
ATOM     77  O   UNL     1      -7.232 -11.261  -4.387  1.00  0.00    -0.366 OA
ATOM     78  H   UNL     1      -8.188 -11.288  -4.193  1.00  0.00    +0.213 HD
ENDBRANCH  68  77
ENDBRANCH  63  64
ENDBRANCH  60  63
ENDBRANCH  52  53
ENDBRANCH   5  52
TORSDOF 27
ENDMDL
MODEL 9
REMARK VINA RESULT:    -7.787      4.303      8.788
REMARK INTER + INTRA:         -20.577
REMARK INTER:                 -16.956
REMARK INTRA:                  -3.621
REMARK UNBOUND:                -3.686
REMARK SMILES OC[C@@H]1O[C@H](O[C@H]2[C@@H]3OC[C@H]2O[C@@H](O[C@@H]2[C@H](O)[C@@H](O[C@@H]4[C@@H]5OC[C@H]4O[C@H](O[C@@H]4[C@@H](O)[C@H](O)O[C@@H](CO)[C@H]4O)[C@@H]5O)O[C@H](CO)[C@H]2O)[C@H]3O)[C@@H](O)[C@H](O[C@@H]2O[C@@H]3CO[C@H]([C@H]2O)[C@@H]3O)[C@H]1O
REMARK SMILES IDX 15 1 45 2 42 3 41 4 18 5 16 6 14 7 13 8 7 9 11 10 8 11 10 12
REMARK SMILES IDX 12 13 9 14 47 15 6 16 5 17 51 18 63 19 49 20 3 21 4 22 52 23
REMARK SMILES IDX 53 24 56 25 55 26 57 27 61 28 54 29 58 30 59 31 62 32 60 34
REMARK SMILES IDX 64 36 50 38 2 40 1 41 48 43 46 45 17 47 43 49 44 50 19 52
REMARK SMILES IDX 20 53 24 54 21 55 23 56 25 57 22 58 39 59 26 60 40 61 27 63
REMARK SMILES IDX 28 64 37 65 29 66 34 67 31 68 33 69 38 70 30 72 35 74 36 75
REMARK SMILES IDX 32 77
REMARK H PARENT 62 33 60 35 64 37 50 39 1 42 48 44 46 46 17 48 44 51 40 62
REMARK H PARENT 38 71 30 73 36 76 32 78
ROOT
ATOM      1  C   UNL     1       2.104  10.302  -8.282  1.00  0.00    +0.186 C 
ATOM      2  C   UNL     1       1.089  10.296  -7.120  1.00  0.00    +0.177 C 
ATOM      3  C   UNL     1       0.354   8.944  -6.989  1.00  0.00    +0.178 C 
ATOM      4  O   UNL     1       0.396   8.200  -8.207  1.00  0.00    -0.341 OA
ATOM      5  C   UNL     1       1.723   7.809  -8.566  1.00  0.00    +0.282 C 
ATOM      6  C   UNL     1       2.779   8.926  -8.335  1.00  0.00    +0.202 C 
ENDROOT
BRANCH   1   7
ATOM      7  O   UNL     1       1.562  10.548  -9.602  1.00  0.00    -0.341 OA
BRANCH   7   8
ATOM      8  C   UNL     1       2.084  11.721 -10.240  1.00  0.00    +0.282 C 
ATOM      9  C   UNL     1       0.628  13.254 -12.271  1.00  0.00    +0.184 C 
ATOM     10  C   UNL     1       0.088  12.957 -10.879  1.00  0.00    +0.179 C 
ATOM     11  C   UNL     1       1.093  11.835 -12.590  1.00  0.00    +0.184 C 
ATOM     12  C   UNL     1      -0.702  11.673 -11.134  1.00  0.00    +0.195 C 
ATOM     13  O   UNL     1       1.199  12.818  -9.965  1.00  0.00    -0.341 OA
ATOM     14  O   UNL     1       0.006  10.969 -12.181  1.00  0.00    -0.370 OA
ATOM     15  C   UNL     1       2.334  11.484 -11.755  1.00  0.00    +0.202 C 
BRANCH   9  16
ATOM     16  O   UNL     1       1.711  14.174 -12.314  1.00  0.00    -0.341 OA
BRANCH  16  17
ATOM     17  C   UNL     1       1.404  15.442 -12.926  1.00  0.00    +0.282 C 
ATOM     18  C   UNL     1       1.112  17.898 -12.217  1.00  0.00    +0.186 C 
ATOM     19  C   UNL     1      -0.044  17.828 -13.226  1.00  0.00    +0.177 C 
ATOM     20  C   UNL     1       1.651  16.509 -11.839  1.00  0.00    +0.202 C 
ATOM     21  C   UNL     1      -0.790  16.495 -13.180  1.00  0.00    +0.178 C 
ATOM     22  O   UNL     1       0.077  15.386 -13.432  1.00  0.00    -0.341 OA
BRANCH  18  23
ATOM     23  O   UNL     1       0.611  18.571 -11.040  1.00  0.00    -0.341 OA
BRANCH  23  24
ATOM     24  C   UNL     1       0.830  17.849  -9.821  1.00  0.00    +0.282 C 
ATOM     25  C   UNL     1      -0.904  20.016  -8.825  1.00  0.00    +0.195 C 
ATOM     26  C   UNL     1      -0.877  18.602  -8.246  1.00  0.00    +0.178 C 
ATOM     27  O   UNL     1       0.434  20.541  -8.655  1.00  0.00    -0.370 OA
ATOM     28  C   UNL     1       0.143  18.773  -7.137  1.00  0.00    +0.177 C 
ATOM     29  O   UNL     1      -0.429  17.595  -9.172  1.00  0.00    -0.341 OA
ATOM     30  C   UNL     1       1.189  19.536  -7.943  1.00  0.00    +0.183 C 
ATOM     31  C   UNL     1       1.876  18.595  -8.944  1.00  0.00    +0.202 C 
BRANCH  28  32
ATOM     32  O   UNL     1       0.614  17.545  -6.598  1.00  0.00    -0.387 OA
ATOM     33  H   UNL     1       1.353  17.755  -5.996  1.00  0.00    +0.211 HD
ENDBRANCH  28  32
BRANCH  31  34
ATOM     34  O   UNL     1       2.704  17.653  -8.239  1.00  0.00    -0.385 OA
ATOM     35  H   UNL     1       3.114  17.076  -8.921  1.00  0.00    +0.211 HD
ENDBRANCH  31  34
ENDBRANCH  23  24
ENDBRANCH  18  23
BRANCH  19  36
ATOM     36  O   UNL     1       0.522  17.992 -14.541  1.00  0.00    -0.387 OA
ATOM     37  H   UNL     1      -0.157  18.397 -15.111  1.00  0.00    +0.211 HD
ENDBRANCH  19  36
BRANCH  20  38
ATOM     38  O   UNL     1       3.059  16.604 -11.540  1.00  0.00    -0.385 OA
ATOM     39  H   UNL     1       3.479  15.824 -11.959  1.00  0.00    +0.211 HD
ENDBRANCH  20  38
BRANCH  21  40
ATOM     40  C   UNL     1      -1.602  16.245 -11.902  1.00  0.00    +0.191 C 
BRANCH  40  41
ATOM     41  O   UNL     1      -2.350  15.029 -12.045  1.00  0.00    -0.394 OA
ATOM     42  H   UNL     1      -2.666  15.031 -12.978  1.00  0.00    +0.210 HD
ENDBRANCH  40  41
ENDBRANCH  21  40
ENDBRANCH  16  17
ENDBRANCH   9  16
BRANCH  15  43
ATOM     43  O   UNL     1       2.738  10.132 -12.008  1.00  0.00    -0.385 OA
ATOM     44  H   UNL     1       2.426   9.945 -12.917  1.00  0.00    +0.211 HD
ENDBRANCH  15  43
ENDBRANCH   7   8
ENDBRANCH   1   7
BRANCH   2  45
ATOM     45  O   UNL     1       1.779  10.568  -5.889  1.00  0.00    -0.387 OA
ATOM     46  H   UNL     1       1.109  10.481  -5.180  1.00  0.00    +0.211 HD
ENDBRANCH   2  45
BRANCH   6  47
ATOM     47  O   UNL     1       3.764   8.906  -9.385  1.00  0.00    -0.385 OA
ATOM     48  H   UNL     1       3.872   9.837  -9.663  1.00  0.00    +0.211 HD
ENDBRANCH   6  47
BRANCH   3  49
ATOM     49  C   UNL     1      -1.116   9.157  -6.601  1.00  0.00    +0.191 C 
BRANCH  49  50
ATOM     50  O   UNL     1      -1.341  10.478  -6.116  1.00  0.00    -0.394 OA
ATOM     51  H   UNL     1      -1.846  10.949  -6.816  1.00  0.00    +0.210 HD
ENDBRANCH  49  50
ENDBRANCH   3  49
BRANCH   5  52
ATOM     52  O   UNL     1       2.126   6.644  -7.836  1.00  0.00    -0.341 OA
BRANCH  52  53
ATOM     53  C   UNL     1       1.691   5.417  -8.429  1.00  0.00    +0.184 C 
ATOM     54  C   UNL     1       2.109   5.406  -9.890  1.00  0.00    +0.179 C 
ATOM     55  C   UNL     1       2.504   4.194  -7.990  1.00  0.00    +0.184 C 
ATOM     56  C   UNL     1       3.622   5.209  -9.761  1.00  0.00    +0.195 C 
ATOM     57  O   UNL     1       1.456   4.315 -10.577  1.00  0.00    -0.341 OA
ATOM     58  O   UNL     1       3.806   4.334  -8.620  1.00  0.00    -0.370 OA
ATOM     59  C   UNL     1       1.842   2.932  -8.555  1.00  0.00    +0.202 C 
ATOM     60  C   UNL     1       1.822   3.013 -10.104  1.00  0.00    +0.282 C 
BRANCH  59  61
ATOM     61  O   UNL     1       0.512   2.803  -8.026  1.00  0.00    -0.385 OA
ATOM     62  H   UNL     1       0.625   2.634  -7.070  1.00  0.00    +0.211 HD
ENDBRANCH  59  61
BRANCH  60  63
ATOM     63  O   UNL     1       0.839   2.083 -10.574  1.00  0.00    -0.341 OA
BRANCH  63  64
ATOM     64  C   UNL     1       1.367   1.027 -11.392  1.00  0.00    +0.186 C 
ATOM     65  C   UNL     1       2.187   0.100 -10.470  1.00  0.00    +0.177 C 
ATOM     66  C   UNL     1       0.295   0.195 -12.132  1.00  0.00    +0.202 C 
ATOM     67  C   UNL     1       1.247  -0.701  -9.544  1.00  0.00    +0.178 C 
ATOM     68  C   UNL     1      -0.550  -0.621 -11.124  1.00  0.00    +0.279 C 
ATOM     69  O   UNL     1       0.286  -1.441 -10.312  1.00  0.00    -0.342 OA
BRANCH  65  70
ATOM     70  O   UNL     1       3.013  -0.781 -11.247  1.00  0.00    -0.387 OA
ATOM     71  H   UNL     1       2.422  -1.225 -11.897  1.00  0.00    +0.211 HD
ENDBRANCH  65  70
BRANCH  66  72
ATOM     72  O   UNL     1       0.974  -0.683 -13.053  1.00  0.00    -0.385 OA
ATOM     73  H   UNL     1       1.923  -0.670 -12.825  1.00  0.00    +0.211 HD
ENDBRANCH  66  72
BRANCH  67  74
ATOM     74  C   UNL     1       2.011  -1.687  -8.640  1.00  0.00    +0.191 C 
BRANCH  74  75
ATOM     75  O   UNL     1       2.373  -2.902  -9.295  1.00  0.00    -0.394 OA
ATOM     76  H   UNL     1       1.646  -3.539  -9.131  1.00  0.00    +0.210 HD
ENDBRANCH  74  75
ENDBRANCH  67  74
BRANCH  68  77
ATOM     77  O   UNL     1      -1.419   0.169 -10.331  1.00  0.00    -0.366 OA
ATOM     78  H   UNL     1      -1.191   0.033  -9.392  1.00  0.00    +0.213 HD
ENDBRANCH  68  77
ENDBRANCH  63  64
ENDBRANCH  60  63
ENDBRANCH  52  53
ENDBRANCH   5  52
TORSDOF 27
ENDMDL
