MODEL 1
REMARK VINA RESULT:    -6.382      0.000      0.000
REMARK INTER + INTRA:         -18.803
REMARK INTER:                 -14.402
REMARK INTRA:                  -4.400
REMARK UNBOUND:                -4.400
REMARK SMILES OC[C@H]1O[C@H](O[C@H]2[C@H](O)[C@H](O)[C@H](O[C@@H]3[C@@H](O)[C@H](O)[C@H](O[C@@H]4[C@H](O)[C@@H](O)[C@@H](O[C@@H]5[C@@H](O)[C@@H](O)[C@H](O)O[C@@H]5CO)O[C@@H]4CO)O[C@@H]3CO)O[C@@H]2CO)[C@H](O)[C@H](O)[C@H]1O
REMARK SMILES IDX 14 1 44 2 43 3 19 4 17 5 15 6 13 7 12 8 7 9 48 10 8 11 47 12
REMARK SMILES IDX 10 13 6 14 5 15 3 16 55 17 4 18 53 19 51 20 2 21 1 22 56 24
REMARK SMILES IDX 54 26 52 28 49 30 50 31 9 33 11 35 45 37 46 38 16 40 18 42
REMARK SMILES IDX 20 44 21 45 40 46 22 47 39 48 24 49 26 50 41 51 42 52 23 54
REMARK SMILES IDX 25 56 27 58 28 59 36 60 29 61 35 62 31 63 33 64 37 65 38 66
REMARK SMILES IDX 30 68 32 70 34 72
REMARK H PARENT 1 23 56 25 54 27 52 29 50 32 9 34 11 36 46 39 16 41 18 43
REMARK H PARENT 42 53 23 55 25 57 38 67 30 69 32 71 34 73
ROOT
ATOM      1  C   UNL     1       8.367 -12.099  -5.880  1.00  0.00    +0.184 C 
ATOM      2  C   UNL     1       7.077 -12.791  -5.410  1.00  0.00    +0.178 C 
ATOM      3  O   UNL     1       7.175 -13.298  -4.065  1.00  0.00    -0.341 OA
ATOM      4  C   UNL     1       8.306 -14.120  -3.767  1.00  0.00    +0.282 C 
ATOM      5  C   UNL     1       9.633 -13.471  -4.207  1.00  0.00    +0.202 C 
ATOM      6  C   UNL     1       9.575 -13.015  -5.665  1.00  0.00    +0.180 C 
ENDROOT
BRANCH   1   7
ATOM      7  O   UNL     1       8.257 -11.757  -7.270  1.00  0.00    -0.341 OA
BRANCH   7   8
ATOM      8  C   UNL     1       8.402 -10.348  -7.498  1.00  0.00    +0.282 C 
ATOM      9  C   UNL     1       6.776  -8.723  -9.381  1.00  0.00    +0.184 C 
ATOM     10  C   UNL     1       6.222  -9.462  -8.136  1.00  0.00    +0.178 C 
ATOM     11  C   UNL     1       8.313  -8.798  -9.466  1.00  0.00    +0.180 C 
ATOM     12  O   UNL     1       7.215  -9.656  -7.119  1.00  0.00    -0.341 OA
ATOM     13  C   UNL     1       8.833 -10.134  -8.963  1.00  0.00    +0.202 C 
BRANCH   9  14
ATOM     14  O   UNL     1       6.474  -7.312  -9.293  1.00  0.00    -0.341 OA
BRANCH  14  15
ATOM     15  C   UNL     1       5.144  -7.039  -8.849  1.00  0.00    +0.282 C 
ATOM     16  C   UNL     1       3.758  -5.362  -7.794  1.00  0.00    +0.178 C 
ATOM     17  C   UNL     1       2.718  -5.462  -8.922  1.00  0.00    +0.177 C 
ATOM     18  O   UNL     1       5.066  -5.744  -8.245  1.00  0.00    -0.341 OA
ATOM     19  C   UNL     1       2.762  -6.843  -9.588  1.00  0.00    +0.179 C 
ATOM     20  C   UNL     1       4.182  -7.160 -10.053  1.00  0.00    +0.202 C 
BRANCH  16  21
ATOM     21  C   UNL     1       3.371  -6.123  -6.515  1.00  0.00    +0.191 C 
BRANCH  21  22
ATOM     22  O   UNL     1       2.397  -5.387  -5.776  1.00  0.00    -0.394 OA
ATOM     23  H   UNL     1       1.746  -5.026  -6.422  1.00  0.00    +0.210 HD
ENDBRANCH  21  22
ENDBRANCH  16  21
BRANCH  17  24
ATOM     24  O   UNL     1       1.384  -5.219  -8.466  1.00  0.00    -0.387 OA
ATOM     25  H   UNL     1       1.403  -4.394  -7.946  1.00  0.00    +0.211 HD
ENDBRANCH  17  24
BRANCH  19  26
ATOM     26  O   UNL     1       1.874  -6.849 -10.720  1.00  0.00    -0.387 OA
ATOM     27  H   UNL     1       1.148  -6.240 -10.478  1.00  0.00    +0.211 HD
ENDBRANCH  19  26
BRANCH  20  28
ATOM     28  O   UNL     1       4.521  -6.242 -11.112  1.00  0.00    -0.385 OA
ATOM     29  H   UNL     1       4.048  -6.582 -11.898  1.00  0.00    +0.211 HD
ENDBRANCH  20  28
ENDBRANCH  14  15
ENDBRANCH   9  14
BRANCH  10  30
ATOM     30  C   UNL     1       5.492 -10.778  -8.459  1.00  0.00    +0.191 C 
BRANCH  30  31
ATOM     31  O   UNL     1       4.515 -10.608  -9.483  1.00  0.00    -0.394 OA
ATOM     32  H   UNL     1       4.359  -9.648  -9.557  1.00  0.00    +0.210 HD
ENDBRANCH  30  31
ENDBRANCH  10  30
BRANCH  11  33
ATOM     33  O   UNL     1       8.723  -8.624 -10.837  1.00  0.00    -0.387 OA
ATOM     34  H   UNL     1       9.616  -9.020 -10.891  1.00  0.00    +0.211 HD
ENDBRANCH  11  33
BRANCH  13  35
ATOM     35  O   UNL     1       8.333 -11.167  -9.840  1.00  0.00    -0.385 OA
ATOM     36  H   UNL     1       9.037 -11.283 -10.511  1.00  0.00    +0.211 HD
ENDBRANCH  13  35
ENDBRANCH   7   8
ENDBRANCH   1   7
BRANCH   2  37
ATOM     37  C   UNL     1       6.551 -13.859  -6.387  1.00  0.00    +0.191 C 
BRANCH  37  38
ATOM     38  O   UNL     1       5.134 -13.974  -6.270  1.00  0.00    -0.394 OA
ATOM     39  H   UNL     1       4.941 -14.058  -5.318  1.00  0.00    +0.210 HD
ENDBRANCH  37  38
ENDBRANCH   2  37
BRANCH   6  40
ATOM     40  O   UNL     1      10.789 -12.315  -5.985  1.00  0.00    -0.387 OA
ATOM     41  H   UNL     1      10.785 -12.178  -6.955  1.00  0.00    +0.211 HD
ENDBRANCH   6  40
BRANCH   5  42
ATOM     42  O   UNL     1      10.758 -14.346  -4.039  1.00  0.00    -0.385 OA
ATOM     43  H   UNL     1      11.403 -13.884  -3.470  1.00  0.00    +0.211 HD
ENDBRANCH   5  42
BRANCH   4  44
ATOM     44  O   UNL     1       8.134 -15.413  -4.357  1.00  0.00    -0.341 OA
BRANCH  44  45
ATOM     45  C   UNL     1       7.972 -16.489  -3.398  1.00  0.00    +0.184 C 
ATOM     46  C   UNL     1       6.818 -17.455  -3.777  1.00  0.00    +0.178 C 
ATOM     47  C   UNL     1       9.331 -17.239  -3.359  1.00  0.00    +0.180 C 
ATOM     48  O   UNL     1       7.270 -18.411  -4.753  1.00  0.00    -0.341 OA
ATOM     49  C   UNL     1       9.138 -18.727  -3.109  1.00  0.00    +0.202 C 
ATOM     50  C   UNL     1       8.235 -19.328  -4.220  1.00  0.00    +0.282 C 
BRANCH  46  51
ATOM     51  C   UNL     1       5.591 -16.752  -4.361  1.00  0.00    +0.191 C 
BRANCH  51  52
ATOM     52  O   UNL     1       5.267 -15.606  -3.572  1.00  0.00    -0.394 OA
ATOM     53  H   UNL     1       5.399 -14.838  -4.160  1.00  0.00    +0.210 HD
ENDBRANCH  51  52
ENDBRANCH  46  51
BRANCH  47  54
ATOM     54  O   UNL     1      10.073 -17.041  -4.572  1.00  0.00    -0.387 OA
ATOM     55  H   UNL     1       9.437 -17.174  -5.303  1.00  0.00    +0.211 HD
ENDBRANCH  47  54
BRANCH  49  56
ATOM     56  O   UNL     1       8.564 -18.905  -1.802  1.00  0.00    -0.385 OA
ATOM     57  H   UNL     1       7.983 -19.698  -1.880  1.00  0.00    +0.211 HD
ENDBRANCH  49  56
BRANCH  50  58
ATOM     58  O   UNL     1       7.562 -20.453  -3.661  1.00  0.00    -0.341 OA
BRANCH  58  59
ATOM     59  C   UNL     1       7.712 -21.672  -4.390  1.00  0.00    +0.184 C 
ATOM     60  C   UNL     1       7.870 -22.834  -3.376  1.00  0.00    +0.178 C 
ATOM     61  C   UNL     1       6.483 -21.920  -5.272  1.00  0.00    +0.180 C 
ATOM     62  O   UNL     1       6.671 -23.012  -2.590  1.00  0.00    -0.342 OA
ATOM     63  C   UNL     1       5.251 -22.205  -4.411  1.00  0.00    +0.201 C 
ATOM     64  C   UNL     1       5.554 -23.327  -3.404  1.00  0.00    +0.279 C 
BRANCH  60  65
ATOM     65  C   UNL     1       9.017 -22.592  -2.379  1.00  0.00    +0.191 C 
BRANCH  65  66
ATOM     66  O   UNL     1       8.595 -21.785  -1.276  1.00  0.00    -0.394 OA
ATOM     67  H   UNL     1       9.014 -20.913  -1.435  1.00  0.00    +0.210 HD
ENDBRANCH  65  66
ENDBRANCH  60  65
BRANCH  61  68
ATOM     68  O   UNL     1       6.726 -23.035  -6.142  1.00  0.00    -0.387 OA
ATOM     69  H   UNL     1       5.901 -23.126  -6.665  1.00  0.00    +0.211 HD
ENDBRANCH  61  68
BRANCH  63  70
ATOM     70  O   UNL     1       4.161 -22.578  -5.270  1.00  0.00    -0.385 OA
ATOM     71  H   UNL     1       4.590 -22.945  -6.070  1.00  0.00    +0.211 HD
ENDBRANCH  63  70
BRANCH  64  72
ATOM     72  O   UNL     1       4.417 -23.474  -2.560  1.00  0.00    -0.366 OA
ATOM     73  H   UNL     1       4.359 -22.633  -2.075  1.00  0.00    +0.213 HD
ENDBRANCH  64  72
ENDBRANCH  58  59
ENDBRANCH  50  58
ENDBRANCH  44  45
ENDBRANCH   4  44
TORSDOF 30
ENDMDL
MODEL 2
REMARK VINA RESULT:    -5.826     33.652     37.248
REMARK INTER + INTRA:         -17.548
REMARK INTER:                 -13.274
REMARK INTRA:                  -4.274
REMARK UNBOUND:                -4.400
REMARK SMILES OC[C@H]1O[C@H](O[C@H]2[C@H](O)[C@H](O)[C@H](O[C@@H]3[C@@H](O)[C@H](O)[C@H](O[C@@H]4[C@H](O)[C@@H](O)[C@@H](O[C@@H]5[C@@H](O)[C@@H](O)[C@H](O)O[C@@H]5CO)O[C@@H]4CO)O[C@@H]3CO)O[C@@H]2CO)[C@H](O)[C@H](O)[C@H]1O
REMARK SMILES IDX 14 1 44 2 43 3 19 4 17 5 15 6 13 7 12 8 7 9 48 10 8 11 47 12
REMARK SMILES IDX 10 13 6 14 5 15 3 16 55 17 4 18 53 19 51 20 2 21 1 22 56 24
REMARK SMILES IDX 54 26 52 28 49 30 50 31 9 33 11 35 45 37 46 38 16 40 18 42
REMARK SMILES IDX 20 44 21 45 40 46 22 47 39 48 24 49 26 50 41 51 42 52 23 54
REMARK SMILES IDX 25 56 27 58 28 59 36 60 29 61 35 62 31 63 33 64 37 65 38 66
REMARK SMILES IDX 30 68 32 70 34 72
REMARK H PARENT 1 23 56 25 54 27 52 29 50 32 9 34 11 36 46 39 16 41 18 43
REMARK H PARENT 42 53 23 55 25 57 38 67 30 69 32 71 34 73
ROOT
ATOM      1  C   UNL     1       0.888  21.947 -13.386  1.00  0.00    +0.184 C 
ATOM      2  C   UNL     1       0.017  22.952 -12.615  1.00  0.00    +0.178 C 
ATOM      3  O   UNL     1       0.794  23.960 -11.940  1.00  0.00    -0.341 OA
ATOM      4  C   UNL     1       1.861  23.500 -11.107  1.00  0.00    +0.282 C 
ATOM      5  C   UNL     1       2.777  22.495 -11.832  1.00  0.00    +0.202 C 
ATOM      6  C   UNL     1       1.970  21.365 -12.472  1.00  0.00    +0.180 C 
ENDROOT
BRANCH   1   7
ATOM      7  O   UNL     1       0.067  20.887 -13.903  1.00  0.00    -0.341 OA
BRANCH   7   8
ATOM      8  C   UNL     1      -0.264  21.079 -15.285  1.00  0.00    +0.282 C 
ATOM      9  C   UNL     1      -1.137  18.953 -17.168  1.00  0.00    +0.184 C 
ATOM     10  C   UNL     1      -1.915  19.396 -15.903  1.00  0.00    +0.178 C 
ATOM     11  C   UNL     1       0.091  19.845 -17.437  1.00  0.00    +0.180 C 
ATOM     12  O   UNL     1      -1.631  20.749 -15.522  1.00  0.00    -0.341 OA
ATOM     13  C   UNL     1       0.747  20.292 -16.143  1.00  0.00    +0.202 C 
BRANCH   9  14
ATOM     14  O   UNL     1      -1.972  19.101 -18.339  1.00  0.00    -0.341 OA
BRANCH  14  15
ATOM     15  C   UNL     1      -1.961  17.958 -19.196  1.00  0.00    +0.282 C 
ATOM     16  C   UNL     1      -0.859  15.843 -19.595  1.00  0.00    +0.178 C 
ATOM     17  C   UNL     1      -2.208  15.107 -19.627  1.00  0.00    +0.177 C 
ATOM     18  O   UNL     1      -0.930  17.043 -18.810  1.00  0.00    -0.341 OA
ATOM     19  C   UNL     1      -3.339  16.053 -20.049  1.00  0.00    +0.179 C 
ATOM     20  C   UNL     1      -3.355  17.290 -19.154  1.00  0.00    +0.202 C 
BRANCH  16  21
ATOM     21  C   UNL     1      -0.265  16.125 -20.984  1.00  0.00    +0.191 C 
BRANCH  21  22
ATOM     22  O   UNL     1       0.323  14.942 -21.522  1.00  0.00    -0.394 OA
ATOM     23  H   UNL     1      -0.393  14.431 -21.967  1.00  0.00    +0.210 HD
ENDBRANCH  21  22
ENDBRANCH  16  21
BRANCH  17  24
ATOM     24  O   UNL     1      -2.202  13.982 -20.512  1.00  0.00    -0.387 OA
ATOM     25  H   UNL     1      -1.269  13.780 -20.714  1.00  0.00    +0.211 HD
ENDBRANCH  17  24
BRANCH  19  26
ATOM     26  O   UNL     1      -4.597  15.364 -19.937  1.00  0.00    -0.387 OA
ATOM     27  H   UNL     1      -5.274  16.031 -20.171  1.00  0.00    +0.211 HD
ENDBRANCH  19  26
BRANCH  20  28
ATOM     28  O   UNL     1      -3.716  16.874 -17.822  1.00  0.00    -0.385 OA
ATOM     29  H   UNL     1      -3.099  16.144 -17.613  1.00  0.00    +0.211 HD
ENDBRANCH  20  28
ENDBRANCH  14  15
ENDBRANCH   9  14
BRANCH  10  30
ATOM     30  C   UNL     1      -1.769  18.438 -14.707  1.00  0.00    +0.191 C 
BRANCH  30  31
ATOM     31  O   UNL     1      -2.369  18.965 -13.526  1.00  0.00    -0.394 OA
ATOM     32  H   UNL     1      -1.953  18.500 -12.776  1.00  0.00    +0.210 HD
ENDBRANCH  30  31
ENDBRANCH  10  30
BRANCH  11  33
ATOM     33  O   UNL     1       1.053  19.107 -18.217  1.00  0.00    -0.387 OA
ATOM     34  H   UNL     1       1.015  18.191 -17.873  1.00  0.00    +0.211 HD
ENDBRANCH  11  33
BRANCH  13  35
ATOM     35  O   UNL     1       1.247  19.118 -15.465  1.00  0.00    -0.385 OA
ATOM     36  H   UNL     1       1.802  18.666 -16.133  1.00  0.00    +0.211 HD
ENDBRANCH  13  35
ENDBRANCH   7   8
ENDBRANCH   1   7
BRANCH   2  37
ATOM     37  C   UNL     1      -1.008  22.294 -11.673  1.00  0.00    +0.191 C 
BRANCH  37  38
ATOM     38  O   UNL     1      -2.059  21.698 -12.432  1.00  0.00    -0.394 OA
ATOM     39  H   UNL     1      -2.659  21.276 -11.789  1.00  0.00    +0.210 HD
ENDBRANCH  37  38
ENDBRANCH   2  37
BRANCH   6  40
ATOM     40  O   UNL     1       2.858  20.526 -13.231  1.00  0.00    -0.387 OA
ATOM     41  H   UNL     1       2.866  20.880 -14.143  1.00  0.00    +0.211 HD
ENDBRANCH   6  40
BRANCH   5  42
ATOM     42  O   UNL     1       3.768  21.923 -10.964  1.00  0.00    -0.385 OA
ATOM     43  H   UNL     1       3.346  21.780 -10.096  1.00  0.00    +0.211 HD
ENDBRANCH   5  42
BRANCH   4  44
ATOM     44  O   UNL     1       1.329  22.947  -9.898  1.00  0.00    -0.341 OA
BRANCH  44  45
ATOM     45  C   UNL     1       1.068  23.925  -8.861  1.00  0.00    +0.184 C 
ATOM     46  C   UNL     1       0.273  23.330  -7.668  1.00  0.00    +0.178 C 
ATOM     47  C   UNL     1       2.457  24.441  -8.396  1.00  0.00    +0.180 C 
ATOM     48  O   UNL     1       1.163  22.637  -6.773  1.00  0.00    -0.341 OA
ATOM     49  C   UNL     1       2.458  24.780  -6.913  1.00  0.00    +0.202 C 
ATOM     50  C   UNL     1       2.060  23.524  -6.093  1.00  0.00    +0.282 C 
BRANCH  46  51
ATOM     51  C   UNL     1      -0.816  22.340  -8.086  1.00  0.00    +0.191 C 
BRANCH  51  52
ATOM     52  O   UNL     1      -1.831  22.282  -7.082  1.00  0.00    -0.394 OA
ATOM     53  H   UNL     1      -2.504  22.934  -7.353  1.00  0.00    +0.210 HD
ENDBRANCH  51  52
ENDBRANCH  46  51
BRANCH  47  54
ATOM     54  O   UNL     1       3.492  23.485  -8.677  1.00  0.00    -0.387 OA
ATOM     55  H   UNL     1       3.758  23.112  -7.813  1.00  0.00    +0.211 HD
ENDBRANCH  47  54
BRANCH  49  56
ATOM     56  O   UNL     1       1.549  25.872  -6.689  1.00  0.00    -0.385 OA
ATOM     57  H   UNL     1       1.970  26.653  -7.119  1.00  0.00    +0.211 HD
ENDBRANCH  49  56
BRANCH  50  58
ATOM     58  O   UNL     1       1.453  23.978  -4.885  1.00  0.00    -0.341 OA
BRANCH  58  59
ATOM     59  C   UNL     1       2.337  24.092  -3.769  1.00  0.00    +0.184 C 
ATOM     60  C   UNL     1       1.572  24.774  -2.605  1.00  0.00    +0.178 C 
ATOM     61  C   UNL     1       2.820  22.706  -3.327  1.00  0.00    +0.180 C 
ATOM     62  O   UNL     1       0.483  23.948  -2.138  1.00  0.00    -0.342 OA
ATOM     63  C   UNL     1       1.663  21.892  -2.745  1.00  0.00    +0.201 C 
ATOM     64  C   UNL     1       0.944  22.699  -1.650  1.00  0.00    +0.279 C 
BRANCH  60  65
ATOM     65  C   UNL     1       0.956  26.122  -3.018  1.00  0.00    +0.191 C 
BRANCH  65  66
ATOM     66  O   UNL     1       1.785  26.815  -3.956  1.00  0.00    -0.394 OA
ATOM     67  H   UNL     1       2.073  27.621  -3.480  1.00  0.00    +0.210 HD
ENDBRANCH  65  66
ENDBRANCH  60  65
BRANCH  61  68
ATOM     68  O   UNL     1       3.853  22.843  -2.340  1.00  0.00    -0.387 OA
ATOM     69  H   UNL     1       3.393  23.194  -1.548  1.00  0.00    +0.211 HD
ENDBRANCH  61  68
BRANCH  63  70
ATOM     70  O   UNL     1       2.182  20.665  -2.208  1.00  0.00    -0.385 OA
ATOM     71  H   UNL     1       1.650  20.503  -1.401  1.00  0.00    +0.211 HD
ENDBRANCH  63  70
BRANCH  64  72
ATOM     72  O   UNL     1      -0.185  21.945  -1.223  1.00  0.00    -0.366 OA
ATOM     73  H   UNL     1      -0.561  22.460  -0.489  1.00  0.00    +0.213 HD
ENDBRANCH  64  72
ENDBRANCH  58  59
ENDBRANCH  50  58
ENDBRANCH  44  45
ENDBRANCH   4  44
TORSDOF 30
ENDMDL
MODEL 3
REMARK VINA RESULT:    -5.714     33.658     37.037
REMARK INTER + INTRA:         -17.295
REMARK INTER:                 -12.667
REMARK INTRA:                  -4.628
REMARK UNBOUND:                -4.400
REMARK SMILES OC[C@H]1O[C@H](O[C@H]2[C@H](O)[C@H](O)[C@H](O[C@@H]3[C@@H](O)[C@H](O)[C@H](O[C@@H]4[C@H](O)[C@@H](O)[C@@H](O[C@@H]5[C@@H](O)[C@@H](O)[C@H](O)O[C@@H]5CO)O[C@@H]4CO)O[C@@H]3CO)O[C@@H]2CO)[C@H](O)[C@H](O)[C@H]1O
REMARK SMILES IDX 14 1 44 2 43 3 19 4 17 5 15 6 13 7 12 8 7 9 48 10 8 11 47 12
REMARK SMILES IDX 10 13 6 14 5 15 3 16 55 17 4 18 53 19 51 20 2 21 1 22 56 24
REMARK SMILES IDX 54 26 52 28 49 30 50 31 9 33 11 35 45 37 46 38 16 40 18 42
REMARK SMILES IDX 20 44 21 45 40 46 22 47 39 48 24 49 26 50 41 51 42 52 23 54
REMARK SMILES IDX 25 56 27 58 28 59 36 60 29 61 35 62 31 63 33 64 37 65 38 66
REMARK SMILES IDX 30 68 32 70 34 72
REMARK H PARENT 1 23 56 25 54 27 52 29 50 32 9 34 11 36 46 39 16 41 18 43
REMARK H PARENT 42 53 23 55 25 57 38 67 30 69 32 71 34 73
ROOT
ATOM      1  C   UNL     1       2.308  22.047 -14.459  1.00  0.00    +0.184 C 
ATOM      2  C   UNL     1       1.310  22.767 -13.537  1.00  0.00    +0.178 C 
ATOM      3  O   UNL     1       1.866  23.948 -12.927  1.00  0.00    -0.341 OA
ATOM      4  C   UNL     1       3.124  23.798 -12.263  1.00  0.00    +0.282 C 
ATOM      5  C   UNL     1       4.171  23.090 -13.145  1.00  0.00    +0.202 C 
ATOM      6  C   UNL     1       3.624  21.784 -13.721  1.00  0.00    +0.180 C 
ENDROOT
BRANCH   1   7
ATOM      7  O   UNL     1       1.746  20.804 -14.908  1.00  0.00    -0.341 OA
BRANCH   7   8
ATOM      8  C   UNL     1       0.909  20.970 -16.061  1.00  0.00    +0.282 C 
ATOM      9  C   UNL     1      -0.361  18.773 -17.608  1.00  0.00    +0.184 C 
ATOM     10  C   UNL     1      -0.660  19.105 -16.124  1.00  0.00    +0.178 C 
ATOM     11  C   UNL     1       0.576  19.810 -18.258  1.00  0.00    +0.180 C 
ATOM     12  O   UNL     1      -0.404  20.479 -15.800  1.00  0.00    -0.341 OA
ATOM     13  C   UNL     1       1.612  20.320 -17.270  1.00  0.00    +0.202 C 
BRANCH   9  14
ATOM     14  O   UNL     1      -1.579  18.831 -18.384  1.00  0.00    -0.341 OA
BRANCH  14  15
ATOM     15  C   UNL     1      -1.706  17.769 -19.329  1.00  0.00    +0.282 C 
ATOM     16  C   UNL     1      -0.627  15.767 -20.154  1.00  0.00    +0.178 C 
ATOM     17  C   UNL     1      -1.918  14.954 -19.970  1.00  0.00    +0.177 C 
ATOM     18  O   UNL     1      -0.578  16.890 -19.261  1.00  0.00    -0.341 OA
ATOM     19  C   UNL     1      -3.153  15.860 -20.050  1.00  0.00    +0.179 C 
ATOM     20  C   UNL     1      -3.027  17.014 -19.057  1.00  0.00    +0.202 C 
BRANCH  16  21
ATOM     21  C   UNL     1      -0.361  16.204 -21.605  1.00  0.00    +0.191 C 
BRANCH  21  22
ATOM     22  O   UNL     1       1.014  16.016 -21.934  1.00  0.00    -0.394 OA
ATOM     23  H   UNL     1       1.493  16.840 -21.682  1.00  0.00    +0.210 HD
ENDBRANCH  21  22
ENDBRANCH  16  21
BRANCH  17  24
ATOM     24  O   UNL     1      -2.056  13.911 -20.941  1.00  0.00    -0.387 OA
ATOM     25  H   UNL     1      -2.060  14.334 -21.819  1.00  0.00    +0.211 HD
ENDBRANCH  17  24
BRANCH  19  26
ATOM     26  O   UNL     1      -4.326  15.087 -19.739  1.00  0.00    -0.387 OA
ATOM     27  H   UNL     1      -4.094  14.584 -18.933  1.00  0.00    +0.211 HD
ENDBRANCH  19  26
BRANCH  20  28
ATOM     28  O   UNL     1      -3.073  16.464 -17.725  1.00  0.00    -0.385 OA
ATOM     29  H   UNL     1      -3.353  17.209 -17.157  1.00  0.00    +0.211 HD
ENDBRANCH  20  28
ENDBRANCH  14  15
ENDBRANCH   9  14
BRANCH  10  30
ATOM     30  C   UNL     1       0.020  18.159 -15.118  1.00  0.00    +0.191 C 
BRANCH  30  31
ATOM     31  O   UNL     1      -0.114  18.623 -13.777  1.00  0.00    -0.394 OA
ATOM     32  H   UNL     1       0.726  18.410 -13.327  1.00  0.00    +0.210 HD
ENDBRANCH  30  31
ENDBRANCH  10  30
BRANCH  11  33
ATOM     33  O   UNL     1       1.257  19.202 -19.374  1.00  0.00    -0.387 OA
ATOM     34  H   UNL     1       2.157  18.998 -19.047  1.00  0.00    +0.211 HD
ENDBRANCH  11  33
BRANCH  13  35
ATOM     35  O   UNL     1       2.450  19.208 -16.887  1.00  0.00    -0.385 OA
ATOM     36  H   UNL     1       2.049  18.870 -16.059  1.00  0.00    +0.211 HD
ENDBRANCH  13  35
ENDBRANCH   7   8
ENDBRANCH   1   7
BRANCH   2  37
ATOM     37  C   UNL     1       0.645  21.847 -12.497  1.00  0.00    +0.191 C 
BRANCH  37  38
ATOM     38  O   UNL     1      -0.599  21.359 -12.999  1.00  0.00    -0.394 OA
ATOM     39  H   UNL     1      -0.892  21.996 -13.676  1.00  0.00    +0.210 HD
ENDBRANCH  37  38
ENDBRANCH   2  37
BRANCH   6  40
ATOM     40  O   UNL     1       4.594  21.228 -14.625  1.00  0.00    -0.387 OA
ATOM     41  H   UNL     1       4.099  20.921 -15.412  1.00  0.00    +0.211 HD
ENDBRANCH   6  40
BRANCH   5  42
ATOM     42  O   UNL     1       5.390  22.812 -12.440  1.00  0.00    -0.385 OA
ATOM     43  H   UNL     1       5.786  22.017 -12.847  1.00  0.00    +0.211 HD
ENDBRANCH   5  42
BRANCH   4  44
ATOM     44  O   UNL     1       2.937  23.114 -11.020  1.00  0.00    -0.341 OA
BRANCH  44  45
ATOM     45  C   UNL     1       3.079  23.957  -9.848  1.00  0.00    +0.184 C 
ATOM     46  C   UNL     1       1.968  23.704  -8.794  1.00  0.00    +0.178 C 
ATOM     47  C   UNL     1       4.482  23.642  -9.261  1.00  0.00    +0.180 C 
ATOM     48  O   UNL     1       2.298  22.555  -7.992  1.00  0.00    -0.341 OA
ATOM     49  C   UNL     1       4.486  23.753  -7.743  1.00  0.00    +0.202 C 
ATOM     50  C   UNL     1       3.434  22.780  -7.148  1.00  0.00    +0.282 C 
BRANCH  46  51
ATOM     51  C   UNL     1       0.587  23.456  -9.402  1.00  0.00    +0.191 C 
BRANCH  51  52
ATOM     52  O   UNL     1       0.277  24.488 -10.340  1.00  0.00    -0.394 OA
ATOM     53  H   UNL     1      -0.188  25.176  -9.827  1.00  0.00    +0.210 HD
ENDBRANCH  51  52
ENDBRANCH  46  51
BRANCH  47  54
ATOM     54  O   UNL     1       4.934  22.338  -9.655  1.00  0.00    -0.387 OA
ATOM     55  H   UNL     1       4.302  21.702  -9.263  1.00  0.00    +0.211 HD
ENDBRANCH  47  54
BRANCH  49  56
ATOM     56  O   UNL     1       4.215  25.118  -7.379  1.00  0.00    -0.385 OA
ATOM     57  H   UNL     1       5.016  25.624  -7.652  1.00  0.00    +0.211 HD
ENDBRANCH  49  56
BRANCH  50  58
ATOM     58  O   UNL     1       3.001  23.328  -5.905  1.00  0.00    -0.341 OA
BRANCH  58  59
ATOM     59  C   UNL     1       3.128  22.455  -4.782  1.00  0.00    +0.184 C 
ATOM     60  C   UNL     1       3.660  23.276  -3.579  1.00  0.00    +0.178 C 
ATOM     61  C   UNL     1       1.768  21.842  -4.426  1.00  0.00    +0.180 C 
ATOM     62  O   UNL     1       2.708  24.282  -3.168  1.00  0.00    -0.342 OA
ATOM     63  C   UNL     1       0.814  22.916  -3.899  1.00  0.00    +0.201 C 
ATOM     64  C   UNL     1       1.480  23.703  -2.758  1.00  0.00    +0.279 C 
BRANCH  60  65
ATOM     65  C   UNL     1       4.968  24.017  -3.908  1.00  0.00    +0.191 C 
BRANCH  65  66
ATOM     66  O   UNL     1       5.893  23.172  -4.598  1.00  0.00    -0.394 OA
ATOM     67  H   UNL     1       6.414  22.745  -3.886  1.00  0.00    +0.210 HD
ENDBRANCH  65  66
ENDBRANCH  60  65
BRANCH  61  68
ATOM     68  O   UNL     1       1.939  20.823  -3.430  1.00  0.00    -0.387 OA
ATOM     69  H   UNL     1       1.092  20.328  -3.435  1.00  0.00    +0.211 HD
ENDBRANCH  61  68
BRANCH  63  70
ATOM     70  O   UNL     1      -0.390  22.282  -3.439  1.00  0.00    -0.385 OA
ATOM     71  H   UNL     1      -0.998  22.319  -4.206  1.00  0.00    +0.211 HD
ENDBRANCH  63  70
BRANCH  64  72
ATOM     72  O   UNL     1       0.598  24.755  -2.381  1.00  0.00    -0.366 OA
ATOM     73  H   UNL     1       0.426  25.240  -3.206  1.00  0.00    +0.213 HD
ENDBRANCH  64  72
ENDBRANCH  58  59
ENDBRANCH  50  58
ENDBRANCH  44  45
ENDBRANCH   4  44
TORSDOF 30
ENDMDL
MODEL 4
REMARK VINA RESULT:    -5.644     23.790     32.315
REMARK INTER + INTRA:         -17.138
REMARK INTER:                 -13.202
REMARK INTRA:                  -3.936
REMARK UNBOUND:                -4.400
REMARK SMILES OC[C@H]1O[C@H](O[C@H]2[C@H](O)[C@H](O)[C@H](O[C@@H]3[C@@H](O)[C@H](O)[C@H](O[C@@H]4[C@H](O)[C@@H](O)[C@@H](O[C@@H]5[C@@H](O)[C@@H](O)[C@H](O)O[C@@H]5CO)O[C@@H]4CO)O[C@@H]3CO)O[C@@H]2CO)[C@H](O)[C@H](O)[C@H]1O
REMARK SMILES IDX 14 1 44 2 43 3 19 4 17 5 15 6 13 7 12 8 7 9 48 10 8 11 47 12
REMARK SMILES IDX 10 13 6 14 5 15 3 16 55 17 4 18 53 19 51 20 2 21 1 22 56 24
REMARK SMILES IDX 54 26 52 28 49 30 50 31 9 33 11 35 45 37 46 38 16 40 18 42
REMARK SMILES IDX 20 44 21 45 40 46 22 47 39 48 24 49 26 50 41 51 42 52 23 54
REMARK SMILES IDX 25 56 27 58 28 59 36 60 29 61 35 62 31 63 33 64 37 65 38 66
REMARK SMILES IDX 30 68 32 70 34 72
REMARK H PARENT 1 23 56 25 54 27 52 29 50 32 9 34 11 36 46 39 16 41 18 43
REMARK H PARENT 42 53 23 55 25 57 38 67 30 69 32 71 34 73
ROOT
ATOM      1  C   UNL     1      17.601  14.778  -6.154  1.00  0.00    +0.184 C 
ATOM      2  C   UNL     1      17.151  14.646  -7.618  1.00  0.00    +0.178 C 
ATOM      3  O   UNL     1      17.554  15.766  -8.429  1.00  0.00    -0.341 OA
ATOM      4  C   UNL     1      17.228  17.068  -7.935  1.00  0.00    +0.282 C 
ATOM      5  C   UNL     1      17.666  17.264  -6.470  1.00  0.00    +0.202 C 
ATOM      6  C   UNL     1      17.162  16.129  -5.580  1.00  0.00    +0.180 C 
ENDROOT
BRANCH   1   7
ATOM      7  O   UNL     1      17.038  13.712  -5.373  1.00  0.00    -0.341 OA
BRANCH   7   8
ATOM      8  C   UNL     1      18.039  12.813  -4.877  1.00  0.00    +0.282 C 
ATOM      9  C   UNL     1      17.801   9.853  -4.756  1.00  0.00    +0.184 C 
ATOM     10  C   UNL     1      17.798  10.694  -6.058  1.00  0.00    +0.178 C 
ATOM     11  C   UNL     1      18.092  10.713  -3.510  1.00  0.00    +0.180 C 
ATOM     12  O   UNL     1      18.488  11.943  -5.914  1.00  0.00    -0.341 OA
ATOM     13  C   UNL     1      17.477  12.097  -3.633  1.00  0.00    +0.202 C 
BRANCH   9  14
ATOM     14  O   UNL     1      18.869   8.881  -4.798  1.00  0.00    -0.341 OA
BRANCH  14  15
ATOM     15  C   UNL     1      18.844   8.055  -5.962  1.00  0.00    +0.282 C 
ATOM     16  C   UNL     1      20.013   6.268  -7.099  1.00  0.00    +0.178 C 
ATOM     17  C   UNL     1      18.716   5.454  -7.227  1.00  0.00    +0.177 C 
ATOM     18  O   UNL     1      19.966   7.166  -5.979  1.00  0.00    -0.341 OA
ATOM     19  C   UNL     1      17.488   6.374  -7.226  1.00  0.00    +0.179 C 
ATOM     20  C   UNL     1      17.507   7.279  -5.995  1.00  0.00    +0.202 C 
BRANCH  16  21
ATOM     21  C   UNL     1      20.419   7.009  -8.383  1.00  0.00    +0.191 C 
BRANCH  21  22
ATOM     22  O   UNL     1      19.264   7.326  -9.159  1.00  0.00    -0.394 OA
ATOM     23  H   UNL     1      18.568   7.644  -8.537  1.00  0.00    +0.210 HD
ENDBRANCH  21  22
ENDBRANCH  16  21
BRANCH  17  24
ATOM     24  O   UNL     1      18.682   4.653  -8.413  1.00  0.00    -0.387 OA
ATOM     25  H   UNL     1      17.896   4.078  -8.349  1.00  0.00    +0.211 HD
ENDBRANCH  17  24
BRANCH  19  26
ATOM     26  O   UNL     1      16.295   5.570  -7.210  1.00  0.00    -0.387 OA
ATOM     27  H   UNL     1      15.756   5.901  -7.957  1.00  0.00    +0.211 HD
ENDBRANCH  19  26
BRANCH  20  28
ATOM     28  O   UNL     1      17.334   6.450  -4.829  1.00  0.00    -0.385 OA
ATOM     29  H   UNL     1      17.503   5.539  -5.142  1.00  0.00    +0.211 HD
ENDBRANCH  20  28
ENDBRANCH  14  15
ENDBRANCH   9  14
BRANCH  10  30
ATOM     30  C   UNL     1      16.401  10.897  -6.672  1.00  0.00    +0.191 C 
BRANCH  30  31
ATOM     31  O   UNL     1      16.411  10.725  -8.087  1.00  0.00    -0.394 OA
ATOM     32  H   UNL     1      15.541  11.032  -8.407  1.00  0.00    +0.210 HD
ENDBRANCH  30  31
ENDBRANCH  10  30
BRANCH  11  33
ATOM     33  O   UNL     1      17.546  10.062  -2.345  1.00  0.00    -0.387 OA
ATOM     34  H   UNL     1      17.979  10.495  -1.582  1.00  0.00    +0.211 HD
ENDBRANCH  11  33
BRANCH  13  35
ATOM     35  O   UNL     1      16.041  11.945  -3.688  1.00  0.00    -0.385 OA
ATOM     36  H   UNL     1      15.872  11.503  -4.545  1.00  0.00    +0.211 HD
ENDBRANCH  13  35
ENDBRANCH   7   8
ENDBRANCH   1   7
BRANCH   2  37
ATOM     37  C   UNL     1      15.654  14.329  -7.784  1.00  0.00    +0.191 C 
BRANCH  37  38
ATOM     38  O   UNL     1      15.458  13.457  -8.897  1.00  0.00    -0.394 OA
ATOM     39  H   UNL     1      14.573  13.660  -9.254  1.00  0.00    +0.210 HD
ENDBRANCH  37  38
ENDBRANCH   2  37
BRANCH   6  40
ATOM     40  O   UNL     1      17.696  16.299  -4.255  1.00  0.00    -0.387 OA
ATOM     41  H   UNL     1      18.639  16.537  -4.363  1.00  0.00    +0.211 HD
ENDBRANCH   6  40
BRANCH   5  42
ATOM     42  O   UNL     1      17.223  18.515  -5.923  1.00  0.00    -0.385 OA
ATOM     43  H   UNL     1      17.462  19.213  -6.562  1.00  0.00    +0.211 HD
ENDBRANCH   5  42
BRANCH   4  44
ATOM     44  O   UNL     1      15.828  17.314  -8.101  1.00  0.00    -0.341 OA
BRANCH  44  45
ATOM     45  C   UNL     1      15.512  18.303  -9.113  1.00  0.00    +0.184 C 
ATOM     46  C   UNL     1      14.371  17.843 -10.059  1.00  0.00    +0.178 C 
ATOM     47  C   UNL     1      15.109  19.591  -8.345  1.00  0.00    +0.180 C 
ATOM     48  O   UNL     1      13.091  18.081  -9.445  1.00  0.00    -0.341 OA
ATOM     49  C   UNL     1      14.043  20.375  -9.095  1.00  0.00    +0.202 C 
ATOM     50  C   UNL     1      12.795  19.477  -9.313  1.00  0.00    +0.282 C 
BRANCH  46  51
ATOM     51  C   UNL     1      14.433  16.359 -10.424  1.00  0.00    +0.191 C 
BRANCH  51  52
ATOM     52  O   UNL     1      15.762  16.010 -10.815  1.00  0.00    -0.394 OA
ATOM     53  H   UNL     1      15.668  15.232 -11.396  1.00  0.00    +0.210 HD
ENDBRANCH  51  52
ENDBRANCH  46  51
BRANCH  47  54
ATOM     54  O   UNL     1      14.649  19.287  -7.019  1.00  0.00    -0.387 OA
ATOM     55  H   UNL     1      14.825  20.086  -6.482  1.00  0.00    +0.211 HD
ENDBRANCH  47  54
BRANCH  49  56
ATOM     56  O   UNL     1      14.596  20.829 -10.342  1.00  0.00    -0.385 OA
ATOM     57  H   UNL     1      13.840  20.832 -10.976  1.00  0.00    +0.211 HD
ENDBRANCH  49  56
BRANCH  50  58
ATOM     58  O   UNL     1      12.139  19.938 -10.492  1.00  0.00    -0.341 OA
BRANCH  58  59
ATOM     59  C   UNL     1      10.776  20.324 -10.315  1.00  0.00    +0.184 C 
ATOM     60  C   UNL     1      10.413  21.359 -11.410  1.00  0.00    +0.178 C 
ATOM     61  C   UNL     1       9.856  19.103 -10.433  1.00  0.00    +0.180 C 
ATOM     62  O   UNL     1      10.468  20.771 -12.728  1.00  0.00    -0.342 OA
ATOM     63  C   UNL     1       9.859  18.564 -11.865  1.00  0.00    +0.201 C 
ATOM     64  C   UNL     1       9.552  19.696 -12.860  1.00  0.00    +0.279 C 
BRANCH  60  65
ATOM     65  C   UNL     1      11.374  22.560 -11.424  1.00  0.00    +0.191 C 
BRANCH  65  66
ATOM     66  O   UNL     1      12.622  22.229 -12.042  1.00  0.00    -0.394 OA
ATOM     67  H   UNL     1      12.795  21.305 -11.766  1.00  0.00    +0.210 HD
ENDBRANCH  65  66
ENDBRANCH  60  65
BRANCH  61  68
ATOM     68  O   UNL     1       8.517  19.465 -10.061  1.00  0.00    -0.387 OA
ATOM     69  H   UNL     1       8.124  18.635  -9.716  1.00  0.00    +0.211 HD
ENDBRANCH  61  68
BRANCH  63  70
ATOM     70  O   UNL     1       8.876  17.520 -11.970  1.00  0.00    -0.385 OA
ATOM     71  H   UNL     1       8.116  17.941 -12.423  1.00  0.00    +0.211 HD
ENDBRANCH  63  70
BRANCH  64  72
ATOM     72  O   UNL     1       9.676  19.166 -14.175  1.00  0.00    -0.366 OA
ATOM     73  H   UNL     1       9.121  18.368 -14.173  1.00  0.00    +0.213 HD
ENDBRANCH  64  72
ENDBRANCH  58  59
ENDBRANCH  50  58
ENDBRANCH  44  45
ENDBRANCH   4  44
TORSDOF 30
ENDMDL
MODEL 5
REMARK VINA RESULT:    -5.563     18.078     23.219
REMARK INTER + INTRA:         -16.956
REMARK INTER:                 -13.157
REMARK INTRA:                  -3.799
REMARK UNBOUND:                -4.400
REMARK SMILES OC[C@H]1O[C@H](O[C@H]2[C@H](O)[C@H](O)[C@H](O[C@@H]3[C@@H](O)[C@H](O)[C@H](O[C@@H]4[C@H](O)[C@@H](O)[C@@H](O[C@@H]5[C@@H](O)[C@@H](O)[C@H](O)O[C@@H]5CO)O[C@@H]4CO)O[C@@H]3CO)O[C@@H]2CO)[C@H](O)[C@H](O)[C@H]1O
REMARK SMILES IDX 14 1 44 2 43 3 19 4 17 5 15 6 13 7 12 8 7 9 48 10 8 11 47 12
REMARK SMILES IDX 10 13 6 14 5 15 3 16 55 17 4 18 53 19 51 20 2 21 1 22 56 24
REMARK SMILES IDX 54 26 52 28 49 30 50 31 9 33 11 35 45 37 46 38 16 40 18 42
REMARK SMILES IDX 20 44 21 45 40 46 22 47 39 48 24 49 26 50 41 51 42 52 23 54
REMARK SMILES IDX 25 56 27 58 28 59 36 60 29 61 35 62 31 63 33 64 37 65 38 66
REMARK SMILES IDX 30 68 32 70 34 72
REMARK H PARENT 1 23 56 25 54 27 52 29 50 32 9 34 11 36 46 39 16 41 18 43
REMARK H PARENT 42 53 23 55 25 57 38 67 30 69 32 71 34 73
ROOT
ATOM      1  C   UNL     1      22.866   1.435  -1.958  1.00  0.00    +0.184 C 
ATOM      2  C   UNL     1      23.202   0.202  -2.813  1.00  0.00    +0.178 C 
ATOM      3  O   UNL     1      24.018   0.521  -3.956  1.00  0.00    -0.341 OA
ATOM      4  C   UNL     1      23.564   1.586  -4.794  1.00  0.00    +0.282 C 
ATOM      5  C   UNL     1      23.221   2.857  -3.992  1.00  0.00    +0.202 C 
ATOM      6  C   UNL     1      22.276   2.547  -2.831  1.00  0.00    +0.180 C 
ENDROOT
BRANCH   1   7
ATOM      7  O   UNL     1      21.929   1.076  -0.931  1.00  0.00    -0.341 OA
BRANCH   7   8
ATOM      8  C   UNL     1      21.789   2.101   0.062  1.00  0.00    +0.282 C 
ATOM      9  C   UNL     1      20.708   1.719   2.804  1.00  0.00    +0.184 C 
ATOM     10  C   UNL     1      21.996   1.056   2.255  1.00  0.00    +0.178 C 
ATOM     11  C   UNL     1      20.107   2.733   1.810  1.00  0.00    +0.180 C 
ATOM     12  O   UNL     1      22.602   1.812   1.197  1.00  0.00    -0.341 OA
ATOM     13  C   UNL     1      20.289   2.277   0.372  1.00  0.00    +0.202 C 
BRANCH   9  14
ATOM     14  O   UNL     1      21.013   2.491   3.987  1.00  0.00    -0.341 OA
BRANCH  14  15
ATOM     15  C   UNL     1      20.621   1.852   5.202  1.00  0.00    +0.282 C 
ATOM     16  C   UNL     1      20.668   2.069   7.611  1.00  0.00    +0.178 C 
ATOM     17  C   UNL     1      19.152   1.827   7.697  1.00  0.00    +0.177 C 
ATOM     18  O   UNL     1      21.044   2.614   6.337  1.00  0.00    -0.341 OA
ATOM     19  C   UNL     1      18.660   1.000   6.502  1.00  0.00    +0.179 C 
ATOM     20  C   UNL     1      19.087   1.659   5.192  1.00  0.00    +0.202 C 
BRANCH  16  21
ATOM     21  C   UNL     1      21.521   0.837   7.958  1.00  0.00    +0.191 C 
BRANCH  21  22
ATOM     22  O   UNL     1      21.348   0.486   9.330  1.00  0.00    -0.394 OA
ATOM     23  H   UNL     1      21.113   1.309   9.819  1.00  0.00    +0.210 HD
ENDBRANCH  21  22
ENDBRANCH  16  21
BRANCH  17  24
ATOM     24  O   UNL     1      18.768   1.157   8.902  1.00  0.00    -0.387 OA
ATOM     25  H   UNL     1      18.652   1.842   9.587  1.00  0.00    +0.211 HD
ENDBRANCH  17  24
BRANCH  19  26
ATOM     26  O   UNL     1      17.225   0.912   6.549  1.00  0.00    -0.387 OA
ATOM     27  H   UNL     1      16.925   1.172   5.654  1.00  0.00    +0.211 HD
ENDBRANCH  19  26
BRANCH  20  28
ATOM     28  O   UNL     1      18.384   2.913   5.073  1.00  0.00    -0.385 OA
ATOM     29  H   UNL     1      18.062   3.105   5.976  1.00  0.00    +0.211 HD
ENDBRANCH  20  28
ENDBRANCH  14  15
ENDBRANCH   9  14
BRANCH  10  30
ATOM     30  C   UNL     1      21.823  -0.421   1.856  1.00  0.00    +0.191 C 
BRANCH  30  31
ATOM     31  O   UNL     1      20.479  -0.864   2.023  1.00  0.00    -0.394 OA
ATOM     32  H   UNL     1      19.973  -0.092   2.341  1.00  0.00    +0.210 HD
ENDBRANCH  30  31
ENDBRANCH  10  30
BRANCH  11  33
ATOM     33  O   UNL     1      18.699   2.883   2.076  1.00  0.00    -0.387 OA
ATOM     34  H   UNL     1      18.508   2.265   2.811  1.00  0.00    +0.211 HD
ENDBRANCH  11  33
BRANCH  13  35
ATOM     35  O   UNL     1      19.543   1.052   0.194  1.00  0.00    -0.385 OA
ATOM     36  H   UNL     1      19.242   1.080  -0.737  1.00  0.00    +0.211 HD
ENDBRANCH  13  35
ENDBRANCH   7   8
ENDBRANCH   1   7
BRANCH   2  37
ATOM     37  C   UNL     1      21.973  -0.638  -3.205  1.00  0.00    +0.191 C 
BRANCH  37  38
ATOM     38  O   UNL     1      22.361  -1.987  -3.459  1.00  0.00    -0.394 OA
ATOM     39  H   UNL     1      21.548  -2.523  -3.412  1.00  0.00    +0.210 HD
ENDBRANCH  37  38
ENDBRANCH   2  37
BRANCH   6  40
ATOM     40  O   UNL     1      22.085   3.739  -2.051  1.00  0.00    -0.387 OA
ATOM     41  H   UNL     1      21.796   3.448  -1.162  1.00  0.00    +0.211 HD
ENDBRANCH   6  40
BRANCH   5  42
ATOM     42  O   UNL     1      22.635   3.884  -4.806  1.00  0.00    -0.385 OA
ATOM     43  H   UNL     1      23.093   3.869  -5.668  1.00  0.00    +0.211 HD
ENDBRANCH   5  42
BRANCH   4  44
ATOM     44  O   UNL     1      22.450   1.145  -5.578  1.00  0.00    -0.341 OA
BRANCH  44  45
ATOM     45  C   UNL     1      22.710   1.088  -7.003  1.00  0.00    +0.184 C 
ATOM     46  C   UNL     1      22.163  -0.210  -7.657  1.00  0.00    +0.178 C 
ATOM     47  C   UNL     1      22.032   2.343  -7.616  1.00  0.00    +0.180 C 
ATOM     48  O   UNL     1      20.757  -0.073  -7.932  1.00  0.00    -0.341 OA
ATOM     49  C   UNL     1      21.502   2.063  -9.014  1.00  0.00    +0.202 C 
ATOM     50  C   UNL     1      20.488   0.888  -8.960  1.00  0.00    +0.282 C 
BRANCH  46  51
ATOM     51  C   UNL     1      22.340  -1.458  -6.790  1.00  0.00    +0.191 C 
BRANCH  51  52
ATOM     52  O   UNL     1      23.649  -1.470  -6.217  1.00  0.00    -0.394 OA
ATOM     53  H   UNL     1      24.184  -0.875  -6.775  1.00  0.00    +0.210 HD
ENDBRANCH  51  52
ENDBRANCH  46  51
BRANCH  47  54
ATOM     54  O   UNL     1      20.968   2.824  -6.779  1.00  0.00    -0.387 OA
ATOM     55  H   UNL     1      20.220   3.019  -7.378  1.00  0.00    +0.211 HD
ENDBRANCH  47  54
BRANCH  49  56
ATOM     56  O   UNL     1      22.613   1.768  -9.878  1.00  0.00    -0.385 OA
ATOM     57  H   UNL     1      22.210   1.476 -10.729  1.00  0.00    +0.211 HD
ENDBRANCH  49  56
BRANCH  50  58
ATOM     58  O   UNL     1      20.514   0.244 -10.231  1.00  0.00    -0.341 OA
BRANCH  58  59
ATOM     59  C   UNL     1      19.255   0.178 -10.902  1.00  0.00    +0.184 C 
ATOM     60  C   UNL     1      19.507  -0.217 -12.381  1.00  0.00    +0.178 C 
ATOM     61  C   UNL     1      18.349  -0.864 -10.237  1.00  0.00    +0.180 C 
ATOM     62  O   UNL     1      20.056  -1.548 -12.482  1.00  0.00    -0.342 OA
ATOM     63  C   UNL     1      18.905  -2.274 -10.448  1.00  0.00    +0.201 C 
ATOM     64  C   UNL     1      19.175  -2.520 -11.941  1.00  0.00    +0.279 C 
BRANCH  60  65
ATOM     65  C   UNL     1      20.505   0.725 -13.077  1.00  0.00    +0.191 C 
BRANCH  65  66
ATOM     66  O   UNL     1      21.832   0.553 -12.572  1.00  0.00    -0.394 OA
ATOM     67  H   UNL     1      21.960  -0.418 -12.543  1.00  0.00    +0.210 HD
ENDBRANCH  65  66
ENDBRANCH  60  65
BRANCH  61  68
ATOM     68  O   UNL     1      17.027  -0.784 -10.789  1.00  0.00    -0.387 OA
ATOM     69  H   UNL     1      17.160  -0.446 -11.701  1.00  0.00    +0.211 HD
ENDBRANCH  61  68
BRANCH  63  70
ATOM     70  O   UNL     1      17.957  -3.228  -9.943  1.00  0.00    -0.385 OA
ATOM     71  H   UNL     1      17.476  -2.749  -9.236  1.00  0.00    +0.211 HD
ENDBRANCH  63  70
BRANCH  64  72
ATOM     72  O   UNL     1      19.792  -3.797 -12.069  1.00  0.00    -0.366 OA
ATOM     73  H   UNL     1      20.674  -3.685 -11.676  1.00  0.00    +0.213 HD
ENDBRANCH  64  72
ENDBRANCH  58  59
ENDBRANCH  50  58
ENDBRANCH  44  45
ENDBRANCH   4  44
TORSDOF 30
ENDMDL
MODEL 6
REMARK VINA RESULT:    -5.523     18.552     23.777
REMARK INTER + INTRA:         -16.865
REMARK INTER:                 -13.430
REMARK INTRA:                  -3.435
REMARK UNBOUND:                -4.400
REMARK SMILES OC[C@H]1O[C@H](O[C@H]2[C@H](O)[C@H](O)[C@H](O[C@@H]3[C@@H](O)[C@H](O)[C@H](O[C@@H]4[C@H](O)[C@@H](O)[C@@H](O[C@@H]5[C@@H](O)[C@@H](O)[C@H](O)O[C@@H]5CO)O[C@@H]4CO)O[C@@H]3CO)O[C@@H]2CO)[C@H](O)[C@H](O)[C@H]1O
REMARK SMILES IDX 14 1 44 2 43 3 19 4 17 5 15 6 13 7 12 8 7 9 48 10 8 11 47 12
REMARK SMILES IDX 10 13 6 14 5 15 3 16 55 17 4 18 53 19 51 20 2 21 1 22 56 24
REMARK SMILES IDX 54 26 52 28 49 30 50 31 9 33 11 35 45 37 46 38 16 40 18 42
REMARK SMILES IDX 20 44 21 45 40 46 22 47 39 48 24 49 26 50 41 51 42 52 23 54
REMARK SMILES IDX 25 56 27 58 28 59 36 60 29 61 35 62 31 63 33 64 37 65 38 66
REMARK SMILES IDX 30 68 32 70 34 72
REMARK H PARENT 1 23 56 25 54 27 52 29 50 32 9 34 11 36 46 39 16 41 18 43
REMARK H PARENT 42 53 23 55 25 57 38 67 30 69 32 71 34 73
ROOT
ATOM      1  C   UNL     1      21.936   3.293  -2.142  1.00  0.00    +0.184 C 
ATOM      2  C   UNL     1      22.693   2.277  -3.013  1.00  0.00    +0.178 C 
ATOM      3  O   UNL     1      23.320   2.883  -4.159  1.00  0.00    -0.341 OA
ATOM      4  C   UNL     1      22.493   3.710  -4.983  1.00  0.00    +0.282 C 
ATOM      5  C   UNL     1      21.715   4.758  -4.164  1.00  0.00    +0.202 C 
ATOM      6  C   UNL     1      20.966   4.113  -2.998  1.00  0.00    +0.180 C 
ENDROOT
BRANCH   1   7
ATOM      7  O   UNL     1      21.211   2.606  -1.110  1.00  0.00    -0.341 OA
BRANCH   7   8
ATOM      8  C   UNL     1      21.086   3.391   0.083  1.00  0.00    +0.282 C 
ATOM      9  C   UNL     1      21.045   2.329   2.859  1.00  0.00    +0.184 C 
ATOM     10  C   UNL     1      22.242   2.217   1.880  1.00  0.00    +0.178 C 
ATOM     11  C   UNL     1      19.904   3.192   2.285  1.00  0.00    +0.180 C 
ATOM     12  O   UNL     1      22.251   3.259   0.894  1.00  0.00    -0.341 OA
ATOM     13  C   UNL     1      19.767   3.006   0.783  1.00  0.00    +0.202 C 
BRANCH   9  14
ATOM     14  O   UNL     1      21.456   3.006   4.068  1.00  0.00    -0.341 OA
BRANCH  14  15
ATOM     15  C   UNL     1      20.568   2.801   5.167  1.00  0.00    +0.282 C 
ATOM     16  C   UNL     1      19.248   1.126   6.307  1.00  0.00    +0.178 C 
ATOM     17  C   UNL     1      19.874   1.502   7.659  1.00  0.00    +0.177 C 
ATOM     18  O   UNL     1      20.123   1.442   5.213  1.00  0.00    -0.341 OA
ATOM     19  C   UNL     1      20.354   2.959   7.655  1.00  0.00    +0.179 C 
ATOM     20  C   UNL     1      21.291   3.203   6.474  1.00  0.00    +0.202 C 
BRANCH  16  21
ATOM     21  C   UNL     1      17.845   1.713   6.080  1.00  0.00    +0.191 C 
BRANCH  21  22
ATOM     22  O   UNL     1      16.871   0.963   6.804  1.00  0.00    -0.394 OA
ATOM     23  H   UNL     1      17.052   1.092   7.764  1.00  0.00    +0.210 HD
ENDBRANCH  21  22
ENDBRANCH  16  21
BRANCH  17  24
ATOM     24  O   UNL     1      18.970   1.325   8.755  1.00  0.00    -0.387 OA
ATOM     25  H   UNL     1      18.077   1.216   8.376  1.00  0.00    +0.211 HD
ENDBRANCH  17  24
BRANCH  19  26
ATOM     26  O   UNL     1      21.052   3.230   8.883  1.00  0.00    -0.387 OA
ATOM     27  H   UNL     1      20.356   3.263   9.569  1.00  0.00    +0.211 HD
ENDBRANCH  19  26
BRANCH  20  28
ATOM     28  O   UNL     1      22.490   2.432   6.688  1.00  0.00    -0.385 OA
ATOM     29  H   UNL     1      23.220   3.026   6.423  1.00  0.00    +0.211 HD
ENDBRANCH  20  28
ENDBRANCH  14  15
ENDBRANCH   9  14
BRANCH  10  30
ATOM     30  C   UNL     1      22.395   0.831   1.228  1.00  0.00    +0.191 C 
BRANCH  30  31
ATOM     31  O   UNL     1      23.323   0.850   0.147  1.00  0.00    -0.394 OA
ATOM     32  H   UNL     1      22.797   0.970  -0.666  1.00  0.00    +0.210 HD
ENDBRANCH  30  31
ENDBRANCH  10  30
BRANCH  11  33
ATOM     33  O   UNL     1      18.663   2.820   2.916  1.00  0.00    -0.387 OA
ATOM     34  H   UNL     1      18.200   2.257   2.263  1.00  0.00    +0.211 HD
ENDBRANCH  11  33
BRANCH  13  35
ATOM     35  O   UNL     1      19.393   1.633   0.536  1.00  0.00    -0.385 OA
ATOM     36  H   UNL     1      19.963   1.353  -0.210  1.00  0.00    +0.211 HD
ENDBRANCH  13  35
ENDBRANCH   7   8
ENDBRANCH   1   7
BRANCH   2  37
ATOM     37  C   UNL     1      21.857   1.044  -3.402  1.00  0.00    +0.191 C 
BRANCH  37  38
ATOM     38  O   UNL     1      21.707   0.178  -2.279  1.00  0.00    -0.394 OA
ATOM     39  H   UNL     1      21.154  -0.568  -2.577  1.00  0.00    +0.210 HD
ENDBRANCH  37  38
ENDBRANCH   2  37
BRANCH   6  40
ATOM     40  O   UNL     1      20.358   5.145  -2.203  1.00  0.00    -0.387 OA
ATOM     41  H   UNL     1      20.862   5.965  -2.376  1.00  0.00    +0.211 HD
ENDBRANCH   6  40
BRANCH   5  42
ATOM     42  O   UNL     1      20.781   5.501  -4.962  1.00  0.00    -0.385 OA
ATOM     43  H   UNL     1      20.040   5.757  -4.380  1.00  0.00    +0.211 HD
ENDBRANCH   5  42
BRANCH   4  44
ATOM     44  O   UNL     1      21.613   2.893  -5.761  1.00  0.00    -0.341 OA
BRANCH  44  45
ATOM     45  C   UNL     1      21.955   2.820  -7.168  1.00  0.00    +0.184 C 
ATOM     46  C   UNL     1      21.872   1.374  -7.727  1.00  0.00    +0.178 C 
ATOM     47  C   UNL     1      20.956   3.755  -7.902  1.00  0.00    +0.180 C 
ATOM     48  O   UNL     1      20.510   1.045  -8.055  1.00  0.00    -0.341 OA
ATOM     49  C   UNL     1      20.615   3.226  -9.288  1.00  0.00    +0.202 C 
ATOM     50  C   UNL     1      20.013   1.801  -9.167  1.00  0.00    +0.282 C 
BRANCH  46  51
ATOM     51  C   UNL     1      22.379   0.308  -6.754  1.00  0.00    +0.191 C 
BRANCH  51  52
ATOM     52  O   UNL     1      22.760  -0.865  -7.475  1.00  0.00    -0.394 OA
ATOM     53  H   UNL     1      22.972  -0.560  -8.378  1.00  0.00    +0.210 HD
ENDBRANCH  51  52
ENDBRANCH  46  51
BRANCH  47  54
ATOM     54  O   UNL     1      19.751   3.936  -7.141  1.00  0.00    -0.387 OA
ATOM     55  H   UNL     1      19.783   3.272  -6.423  1.00  0.00    +0.211 HD
ENDBRANCH  47  54
BRANCH  49  56
ATOM     56  O   UNL     1      21.808   3.234 -10.091  1.00  0.00    -0.385 OA
ATOM     57  H   UNL     1      22.532   3.504  -9.479  1.00  0.00    +0.211 HD
ENDBRANCH  49  56
BRANCH  50  58
ATOM     58  O   UNL     1      20.306   1.109 -10.379  1.00  0.00    -0.341 OA
BRANCH  58  59
ATOM     59  C   UNL     1      19.167   0.609 -11.081  1.00  0.00    +0.184 C 
ATOM     60  C   UNL     1      19.656  -0.080 -12.381  1.00  0.00    +0.178 C 
ATOM     61  C   UNL     1      18.408  -0.402 -10.214  1.00  0.00    +0.180 C 
ATOM     62  O   UNL     1      20.458  -1.245 -12.088  1.00  0.00    -0.342 OA
ATOM     63  C   UNL     1      19.244  -1.667 -10.006  1.00  0.00    +0.201 C 
ATOM     64  C   UNL     1      19.724  -2.216 -11.359  1.00  0.00    +0.279 C 
BRANCH  60  65
ATOM     65  C   UNL     1      20.528   0.848 -13.244  1.00  0.00    +0.191 C 
BRANCH  65  66
ATOM     66  O   UNL     1      21.792   1.111 -12.626  1.00  0.00    -0.394 OA
ATOM     67  H   UNL     1      21.605   1.822 -11.979  1.00  0.00    +0.210 HD
ENDBRANCH  65  66
ENDBRANCH  60  65
BRANCH  61  68
ATOM     68  O   UNL     1      17.167  -0.748 -10.846  1.00  0.00    -0.387 OA
ATOM     69  H   UNL     1      17.186  -1.727 -10.909  1.00  0.00    +0.211 HD
ENDBRANCH  61  68
BRANCH  63  70
ATOM     70  O   UNL     1      18.444  -2.644  -9.320  1.00  0.00    -0.385 OA
ATOM     71  H   UNL     1      18.023  -3.165 -10.035  1.00  0.00    +0.211 HD
ENDBRANCH  63  70
BRANCH  64  72
ATOM     72  O   UNL     1      20.583  -3.321 -11.102  1.00  0.00    -0.366 OA
ATOM     73  H   UNL     1      20.733  -3.298 -10.142  1.00  0.00    +0.213 HD
ENDBRANCH  64  72
ENDBRANCH  58  59
ENDBRANCH  50  58
ENDBRANCH  44  45
ENDBRANCH   4  44
TORSDOF 30
ENDMDL
MODEL 7
REMARK VINA RESULT:    -5.463     28.617     31.433
REMARK INTER + INTRA:         -16.730
REMARK INTER:                 -12.121
REMARK INTRA:                  -4.609
REMARK UNBOUND:                -4.400
REMARK SMILES OC[C@H]1O[C@H](O[C@H]2[C@H](O)[C@H](O)[C@H](O[C@@H]3[C@@H](O)[C@H](O)[C@H](O[C@@H]4[C@H](O)[C@@H](O)[C@@H](O[C@@H]5[C@@H](O)[C@@H](O)[C@H](O)O[C@@H]5CO)O[C@@H]4CO)O[C@@H]3CO)O[C@@H]2CO)[C@H](O)[C@H](O)[C@H]1O
REMARK SMILES IDX 14 1 44 2 43 3 19 4 17 5 15 6 13 7 12 8 7 9 48 10 8 11 47 12
REMARK SMILES IDX 10 13 6 14 5 15 3 16 55 17 4 18 53 19 51 20 2 21 1 22 56 24
REMARK SMILES IDX 54 26 52 28 49 30 50 31 9 33 11 35 45 37 46 38 16 40 18 42
REMARK SMILES IDX 20 44 21 45 40 46 22 47 39 48 24 49 26 50 41 51 42 52 23 54
REMARK SMILES IDX 25 56 27 58 28 59 36 60 29 61 35 62 31 63 33 64 37 65 38 66
REMARK SMILES IDX 30 68 32 70 34 72
REMARK H PARENT 1 23 56 25 54 27 52 29 50 32 9 34 11 36 46 39 16 41 18 43
REMARK H PARENT 42 53 23 55 25 57 38 67 30 69 32 71 34 73
ROOT
ATOM      1  C   UNL     1     -11.188 -11.211  19.297  1.00  0.00    +0.184 C 
ATOM      2  C   UNL     1     -12.691 -11.110  18.989  1.00  0.00    +0.178 C 
ATOM      3  O   UNL     1     -13.315 -12.399  18.831  1.00  0.00    -0.341 OA
ATOM      4  C   UNL     1     -12.691 -13.310  17.922  1.00  0.00    +0.282 C 
ATOM      5  C   UNL     1     -11.181 -13.460  18.190  1.00  0.00    +0.202 C 
ATOM      6  C   UNL     1     -10.488 -12.100  18.264  1.00  0.00    +0.180 C 
ENDROOT
BRANCH   1   7
ATOM      7  O   UNL     1     -10.600  -9.901  19.289  1.00  0.00    -0.341 OA
BRANCH   7   8
ATOM      8  C   UNL     1     -10.738  -9.233  20.550  1.00  0.00    +0.282 C 
ATOM      9  C   UNL     1      -9.915  -6.437  21.129  1.00  0.00    +0.184 C 
ATOM     10  C   UNL     1     -11.010  -6.850  20.114  1.00  0.00    +0.178 C 
ATOM     11  C   UNL     1      -9.383  -7.641  21.932  1.00  0.00    +0.180 C 
ATOM     12  O   UNL     1     -11.612  -8.114  20.431  1.00  0.00    -0.341 OA
ATOM     13  C   UNL     1      -9.330  -8.898  21.080  1.00  0.00    +0.202 C 
BRANCH   9  14
ATOM     14  O   UNL     1     -10.469  -5.542  22.119  1.00  0.00    -0.341 OA
BRANCH  14  15
ATOM     15  C   UNL     1     -10.321  -4.161  21.787  1.00  0.00    +0.282 C 
ATOM     16  C   UNL     1     -10.684  -1.918  22.614  1.00  0.00    +0.178 C 
ATOM     17  C   UNL     1      -9.229  -1.531  22.304  1.00  0.00    +0.177 C 
ATOM     18  O   UNL     1     -10.818  -3.329  22.840  1.00  0.00    -0.341 OA
ATOM     19  C   UNL     1      -8.662  -2.393  21.170  1.00  0.00    +0.179 C 
ATOM     20  C   UNL     1      -8.829  -3.875  21.499  1.00  0.00    +0.202 C 
BRANCH  16  21
ATOM     21  C   UNL     1     -11.700  -1.426  21.571  1.00  0.00    +0.191 C 
BRANCH  21  22
ATOM     22  O   UNL     1     -13.029  -1.732  21.990  1.00  0.00    -0.394 OA
ATOM     23  H   UNL     1     -13.598  -1.745  21.186  1.00  0.00    +0.210 HD
ENDBRANCH  21  22
ENDBRANCH  16  21
BRANCH  17  24
ATOM     24  O   UNL     1      -9.090  -0.153  21.940  1.00  0.00    -0.387 OA
ATOM     25  H   UNL     1      -8.234  -0.061  21.483  1.00  0.00    +0.211 HD
ENDBRANCH  17  24
BRANCH  19  26
ATOM     26  O   UNL     1      -7.264  -2.094  21.003  1.00  0.00    -0.387 OA
ATOM     27  H   UNL     1      -7.206  -1.119  21.044  1.00  0.00    +0.211 HD
ENDBRANCH  19  26
BRANCH  20  28
ATOM     28  O   UNL     1      -7.990  -4.178  22.632  1.00  0.00    -0.385 OA
ATOM     29  H   UNL     1      -7.383  -3.415  22.704  1.00  0.00    +0.211 HD
ENDBRANCH  20  28
ENDBRANCH  14  15
ENDBRANCH   9  14
BRANCH  10  30
ATOM     30  C   UNL     1     -10.556  -6.803  18.644  1.00  0.00    +0.191 C 
BRANCH  30  31
ATOM     31  O   UNL     1     -11.584  -7.233  17.755  1.00  0.00    -0.394 OA
ATOM     32  H   UNL     1     -11.457  -8.193  17.632  1.00  0.00    +0.210 HD
ENDBRANCH  30  31
ENDBRANCH  10  30
BRANCH  11  33
ATOM     33  O   UNL     1      -8.055  -7.345  22.409  1.00  0.00    -0.387 OA
ATOM     34  H   UNL     1      -8.159  -7.169  23.367  1.00  0.00    +0.211 HD
ENDBRANCH  11  33
BRANCH  13  35
ATOM     35  O   UNL     1      -8.379  -8.676  20.015  1.00  0.00    -0.385 OA
ATOM     36  H   UNL     1      -7.649  -9.302  20.202  1.00  0.00    +0.211 HD
ENDBRANCH  13  35
ENDBRANCH   7   8
ENDBRANCH   1   7
BRANCH   2  37
ATOM     37  C   UNL     1     -13.026 -10.166  17.820  1.00  0.00    +0.191 C 
BRANCH  37  38
ATOM     38  O   UNL     1     -13.588  -8.952  18.317  1.00  0.00    -0.394 OA
ATOM     39  H   UNL     1     -12.853  -8.448  18.712  1.00  0.00    +0.210 HD
ENDBRANCH  37  38
ENDBRANCH   2  37
BRANCH   6  40
ATOM     40  O   UNL     1      -9.112 -12.294  18.631  1.00  0.00    -0.387 OA
ATOM     41  H   UNL     1      -9.112 -12.627  19.551  1.00  0.00    +0.211 HD
ENDBRANCH   6  40
BRANCH   5  42
ATOM     42  O   UNL     1     -10.522 -14.264  17.200  1.00  0.00    -0.385 OA
ATOM     43  H   UNL     1      -9.907 -13.681  16.715  1.00  0.00    +0.211 HD
ENDBRANCH   5  42
BRANCH   4  44
ATOM     44  O   UNL     1     -12.947 -12.901  16.574  1.00  0.00    -0.341 OA
BRANCH  44  45
ATOM     45  C   UNL     1     -13.896 -13.738  15.868  1.00  0.00    +0.184 C 
ATOM     46  C   UNL     1     -14.971 -12.912  15.111  1.00  0.00    +0.178 C 
ATOM     47  C   UNL     1     -13.061 -14.596  14.879  1.00  0.00    +0.180 C 
ATOM     48  O   UNL     1     -14.450 -12.458  13.848  1.00  0.00    -0.341 OA
ATOM     49  C   UNL     1     -13.831 -14.875  13.597  1.00  0.00    +0.202 C 
ATOM     50  C   UNL     1     -14.228 -13.533  12.926  1.00  0.00    +0.282 C 
BRANCH  46  51
ATOM     51  C   UNL     1     -15.452 -11.678  15.877  1.00  0.00    +0.191 C 
BRANCH  51  52
ATOM     52  O   UNL     1     -15.854 -12.052  17.196  1.00  0.00    -0.394 OA
ATOM     53  H   UNL     1     -15.068 -11.916  17.757  1.00  0.00    +0.210 HD
ENDBRANCH  51  52
ENDBRANCH  46  51
BRANCH  47  54
ATOM     54  O   UNL     1     -11.809 -13.965  14.567  1.00  0.00    -0.387 OA
ATOM     55  H   UNL     1     -12.000 -13.010  14.484  1.00  0.00    +0.211 HD
ENDBRANCH  47  54
BRANCH  49  56
ATOM     56  O   UNL     1     -14.984 -15.673  13.916  1.00  0.00    -0.385 OA
ATOM     57  H   UNL     1     -15.723 -15.282  13.393  1.00  0.00    +0.211 HD
ENDBRANCH  49  56
BRANCH  50  58
ATOM     58  O   UNL     1     -15.416 -13.767  12.174  1.00  0.00    -0.341 OA
BRANCH  58  59
ATOM     59  C   UNL     1     -15.209 -14.059  10.791  1.00  0.00    +0.184 C 
ATOM     60  C   UNL     1     -16.568 -14.477  10.170  1.00  0.00    +0.178 C 
ATOM     61  C   UNL     1     -14.666 -12.825  10.061  1.00  0.00    +0.180 C 
ATOM     62  O   UNL     1     -17.511 -13.384  10.186  1.00  0.00    -0.342 OA
ATOM     63  C   UNL     1     -15.724 -11.722  10.007  1.00  0.00    +0.201 C 
ATOM     64  C   UNL     1     -17.041 -12.276   9.436  1.00  0.00    +0.279 C 
BRANCH  60  65
ATOM     65  C   UNL     1     -17.228 -15.639  10.932  1.00  0.00    +0.191 C 
BRANCH  65  66
ATOM     66  O   UNL     1     -17.682 -15.231  12.226  1.00  0.00    -0.394 OA
ATOM     67  H   UNL     1     -17.332 -15.914  12.835  1.00  0.00    +0.210 HD
ENDBRANCH  65  66
ENDBRANCH  60  65
BRANCH  61  68
ATOM     68  O   UNL     1     -14.279 -13.182   8.726  1.00  0.00    -0.387 OA
ATOM     69  H   UNL     1     -15.125 -13.340   8.256  1.00  0.00    +0.211 HD
ENDBRANCH  61  68
BRANCH  63  70
ATOM     70  O   UNL     1     -15.233 -10.647   9.189  1.00  0.00    -0.385 OA
ATOM     71  H   UNL     1     -15.885  -9.926   9.309  1.00  0.00    +0.211 HD
ENDBRANCH  63  70
BRANCH  64  72
ATOM     72  O   UNL     1     -18.017 -11.243   9.511  1.00  0.00    -0.366 OA
ATOM     73  H   UNL     1     -18.031 -10.984  10.448  1.00  0.00    +0.213 HD
ENDBRANCH  64  72
ENDBRANCH  58  59
ENDBRANCH  50  58
ENDBRANCH  44  45
ENDBRANCH   4  44
TORSDOF 30
ENDMDL
MODEL 8
REMARK VINA RESULT:    -5.381     20.398     28.873
REMARK INTER + INTRA:         -16.544
REMARK INTER:                 -11.978
REMARK INTRA:                  -4.566
REMARK UNBOUND:                -4.400
REMARK SMILES OC[C@H]1O[C@H](O[C@H]2[C@H](O)[C@H](O)[C@H](O[C@@H]3[C@@H](O)[C@H](O)[C@H](O[C@@H]4[C@H](O)[C@@H](O)[C@@H](O[C@@H]5[C@@H](O)[C@@H](O)[C@H](O)O[C@@H]5CO)O[C@@H]4CO)O[C@@H]3CO)O[C@@H]2CO)[C@H](O)[C@H](O)[C@H]1O
REMARK SMILES IDX 14 1 44 2 43 3 19 4 17 5 15 6 13 7 12 8 7 9 48 10 8 11 47 12
REMARK SMILES IDX 10 13 6 14 5 15 3 16 55 17 4 18 53 19 51 20 2 21 1 22 56 24
REMARK SMILES IDX 54 26 52 28 49 30 50 31 9 33 11 35 45 37 46 38 16 40 18 42
REMARK SMILES IDX 20 44 21 45 40 46 22 47 39 48 24 49 26 50 41 51 42 52 23 54
REMARK SMILES IDX 25 56 27 58 28 59 36 60 29 61 35 62 31 63 33 64 37 65 38 66
REMARK SMILES IDX 30 68 32 70 34 72
REMARK H PARENT 1 23 56 25 54 27 52 29 50 32 9 34 11 36 46 39 16 41 18 43
REMARK H PARENT 42 53 23 55 25 57 38 67 30 69 32 71 34 73
ROOT
ATOM      1  C   UNL     1      14.575   7.455 -18.805  1.00  0.00    +0.184 C 
ATOM      2  C   UNL     1      13.681   7.855 -19.990  1.00  0.00    +0.178 C 
ATOM      3  O   UNL     1      14.058   9.118 -20.572  1.00  0.00    -0.341 OA
ATOM      4  C   UNL     1      14.202  10.222 -19.675  1.00  0.00    +0.282 C 
ATOM      5  C   UNL     1      15.100   9.883 -18.470  1.00  0.00    +0.202 C 
ATOM      6  C   UNL     1      14.650   8.594 -17.783  1.00  0.00    +0.180 C 
ENDROOT
BRANCH   1   7
ATOM      7  O   UNL     1      14.054   6.273 -18.178  1.00  0.00    -0.341 OA
BRANCH   7   8
ATOM      8  C   UNL     1      14.645   5.074 -18.697  1.00  0.00    +0.282 C 
ATOM      9  C   UNL     1      14.817   2.471 -17.273  1.00  0.00    +0.184 C 
ATOM     10  C   UNL     1      13.499   3.173 -17.689  1.00  0.00    +0.178 C 
ATOM     11  C   UNL     1      16.061   3.205 -17.811  1.00  0.00    +0.180 C 
ATOM     12  O   UNL     1      13.667   4.045 -18.817  1.00  0.00    -0.341 OA
ATOM     13  C   UNL     1      15.859   4.711 -17.818  1.00  0.00    +0.202 C 
BRANCH   9  14
ATOM     14  O   UNL     1      14.879   1.150 -17.856  1.00  0.00    -0.341 OA
BRANCH  14  15
ATOM     15  C   UNL     1      13.935   0.945 -18.907  1.00  0.00    +0.282 C 
ATOM     16  C   UNL     1      13.706   0.812 -21.311  1.00  0.00    +0.178 C 
ATOM     17  C   UNL     1      12.975  -0.536 -21.202  1.00  0.00    +0.177 C 
ATOM     18  O   UNL     1      14.570   1.037 -20.186  1.00  0.00    -0.341 OA
ATOM     19  C   UNL     1      12.269  -0.669 -19.847  1.00  0.00    +0.179 C 
ATOM     20  C   UNL     1      13.261  -0.433 -18.709  1.00  0.00    +0.202 C 
BRANCH  16  21
ATOM     21  C   UNL     1      12.776   2.014 -21.543  1.00  0.00    +0.191 C 
BRANCH  21  22
ATOM     22  O   UNL     1      12.372   2.072 -22.910  1.00  0.00    -0.394 OA
ATOM     23  H   UNL     1      12.339   3.022 -23.169  1.00  0.00    +0.210 HD
ENDBRANCH  21  22
ENDBRANCH  16  21
BRANCH  17  24
ATOM     24  O   UNL     1      12.006  -0.723 -22.239  1.00  0.00    -0.387 OA
ATOM     25  H   UNL     1      11.126  -0.603 -21.836  1.00  0.00    +0.211 HD
ENDBRANCH  17  24
BRANCH  19  26
ATOM     26  O   UNL     1      11.713  -1.990 -19.732  1.00  0.00    -0.387 OA
ATOM     27  H   UNL     1      11.373  -2.202 -20.624  1.00  0.00    +0.211 HD
ENDBRANCH  19  26
BRANCH  20  28
ATOM     28  O   UNL     1      14.218  -1.511 -18.721  1.00  0.00    -0.385 OA
ATOM     29  H   UNL     1      13.894  -2.124 -19.411  1.00  0.00    +0.211 HD
ENDBRANCH  20  28
ENDBRANCH  14  15
ENDBRANCH   9  14
BRANCH  10  30
ATOM     30  C   UNL     1      12.775   3.889 -16.534  1.00  0.00    +0.191 C 
BRANCH  30  31
ATOM     31  O   UNL     1      13.447   3.707 -15.291  1.00  0.00    -0.394 OA
ATOM     32  H   UNL     1      14.073   4.451 -15.204  1.00  0.00    +0.210 HD
ENDBRANCH  30  31
ENDBRANCH  10  30
BRANCH  11  33
ATOM     33  O   UNL     1      17.195   2.891 -16.979  1.00  0.00    -0.387 OA
ATOM     34  H   UNL     1      17.948   3.373 -17.378  1.00  0.00    +0.211 HD
ENDBRANCH  11  33
BRANCH  13  35
ATOM     35  O   UNL     1      15.698   5.147 -16.450  1.00  0.00    -0.385 OA
ATOM     36  H   UNL     1      16.431   4.713 -15.966  1.00  0.00    +0.211 HD
ENDBRANCH  13  35
ENDBRANCH   7   8
ENDBRANCH   1   7
BRANCH   2  37
ATOM     37  C   UNL     1      12.174   7.795 -19.682  1.00  0.00    +0.191 C 
BRANCH  37  38
ATOM     38  O   UNL     1      11.747   6.437 -19.586  1.00  0.00    -0.394 OA
ATOM     39  H   UNL     1      10.874   6.391 -20.017  1.00  0.00    +0.210 HD
ENDBRANCH  37  38
ENDBRANCH   2  37
BRANCH   6  40
ATOM     40  O   UNL     1      15.588   8.264 -16.744  1.00  0.00    -0.387 OA
ATOM     41  H   UNL     1      15.138   8.445 -15.894  1.00  0.00    +0.211 HD
ENDBRANCH   6  40
BRANCH   5  42
ATOM     42  O   UNL     1      15.140  10.938 -17.496  1.00  0.00    -0.385 OA
ATOM     43  H   UNL     1      16.076  11.076 -17.255  1.00  0.00    +0.211 HD
ENDBRANCH   5  42
BRANCH   4  44
ATOM     44  O   UNL     1      12.912  10.679 -19.257  1.00  0.00    -0.341 OA
BRANCH  44  45
ATOM     45  C   UNL     1      12.538  11.975 -19.786  1.00  0.00    +0.184 C 
ATOM     46  C   UNL     1      11.153  11.955 -20.489  1.00  0.00    +0.178 C 
ATOM     47  C   UNL     1      12.529  12.948 -18.576  1.00  0.00    +0.180 C 
ATOM     48  O   UNL     1      10.100  12.063 -19.514  1.00  0.00    -0.341 OA
ATOM     49  C   UNL     1      11.459  14.019 -18.730  1.00  0.00    +0.202 C 
ATOM     50  C   UNL     1      10.068  13.347 -18.878  1.00  0.00    +0.282 C 
BRANCH  46  51
ATOM     51  C   UNL     1      10.894  10.686 -21.302  1.00  0.00    +0.191 C 
BRANCH  51  52
ATOM     52  O   UNL     1      11.969  10.468 -22.219  1.00  0.00    -0.394 OA
ATOM     53  H   UNL     1      12.631   9.948 -21.726  1.00  0.00    +0.210 HD
ENDBRANCH  51  52
ENDBRANCH  46  51
BRANCH  47  54
ATOM     54  O   UNL     1      12.337  12.243 -17.339  1.00  0.00    -0.387 OA
ATOM     55  H   UNL     1      13.226  11.950 -17.054  1.00  0.00    +0.211 HD
ENDBRANCH  47  54
BRANCH  49  56
ATOM     56  O   UNL     1      11.782  14.832 -19.872  1.00  0.00    -0.385 OA
ATOM     57  H   UNL     1      12.744  15.028 -19.788  1.00  0.00    +0.211 HD
ENDBRANCH  49  56
BRANCH  50  58
ATOM     58  O   UNL     1       9.245  14.232 -19.634  1.00  0.00    -0.341 OA
BRANCH  58  59
ATOM     59  C   UNL     1       7.856  14.199 -19.302  1.00  0.00    +0.184 C 
ATOM     60  C   UNL     1       7.237  15.579 -19.645  1.00  0.00    +0.178 C 
ATOM     61  C   UNL     1       7.143  13.101 -20.100  1.00  0.00    +0.180 C 
ATOM     62  O   UNL     1       7.278  15.834 -21.066  1.00  0.00    -0.342 OA
ATOM     63  C   UNL     1       7.115  13.449 -21.589  1.00  0.00    +0.201 C 
ATOM     64  C   UNL     1       6.544  14.862 -21.793  1.00  0.00    +0.279 C 
BRANCH  60  65
ATOM     65  C   UNL     1       7.984  16.741 -18.968  1.00  0.00    +0.191 C 
BRANCH  65  66
ATOM     66  O   UNL     1       8.495  16.364 -17.686  1.00  0.00    -0.394 OA
ATOM     67  H   UNL     1       9.469  16.403 -17.789  1.00  0.00    +0.210 HD
ENDBRANCH  65  66
ENDBRANCH  60  65
BRANCH  61  68
ATOM     68  O   UNL     1       5.800  12.946 -19.619  1.00  0.00    -0.387 OA
ATOM     69  H   UNL     1       5.900  12.540 -18.731  1.00  0.00    +0.211 HD
ENDBRANCH  61  68
BRANCH  63  70
ATOM     70  O   UNL     1       6.311  12.477 -22.278  1.00  0.00    -0.385 OA
ATOM     71  H   UNL     1       6.833  12.244 -23.074  1.00  0.00    +0.211 HD
ENDBRANCH  63  70
BRANCH  64  72
ATOM     72  O   UNL     1       6.642  15.177 -23.178  1.00  0.00    -0.366 OA
ATOM     73  H   UNL     1       7.574  15.013 -23.402  1.00  0.00    +0.213 HD
ENDBRANCH  64  72
ENDBRANCH  58  59
ENDBRANCH  50  58
ENDBRANCH  44  45
ENDBRANCH   4  44
TORSDOF 30
ENDMDL
MODEL 9
REMARK VINA RESULT:    -5.375     17.440     24.712
REMARK INTER + INTRA:         -16.531
REMARK INTER:                 -13.551
REMARK INTRA:                  -2.981
REMARK UNBOUND:                -4.400
REMARK SMILES OC[C@H]1O[C@H](O[C@H]2[C@H](O)[C@H](O)[C@H](O[C@@H]3[C@@H](O)[C@H](O)[C@H](O[C@@H]4[C@H](O)[C@@H](O)[C@@H](O[C@@H]5[C@@H](O)[C@@H](O)[C@H](O)O[C@@H]5CO)O[C@@H]4CO)O[C@@H]3CO)O[C@@H]2CO)[C@H](O)[C@H](O)[C@H]1O
REMARK SMILES IDX 14 1 44 2 43 3 19 4 17 5 15 6 13 7 12 8 7 9 48 10 8 11 47 12
REMARK SMILES IDX 10 13 6 14 5 15 3 16 55 17 4 18 53 19 51 20 2 21 1 22 56 24
REMARK SMILES IDX 54 26 52 28 49 30 50 31 9 33 11 35 45 37 46 38 16 40 18 42
REMARK SMILES IDX 20 44 21 45 40 46 22 47 39 48 24 49 26 50 41 51 42 52 23 54
REMARK SMILES IDX 25 56 27 58 28 59 36 60 29 61 35 62 31 63 33 64 37 65 38 66
REMARK SMILES IDX 30 68 32 70 34 72
REMARK H PARENT 1 23 56 25 54 27 52 29 50 32 9 34 11 36 46 39 16 41 18 43
REMARK H PARENT 42 53 23 55 25 57 38 67 30 69 32 71 34 73
ROOT
ATOM      1  C   UNL     1      21.556   1.843  -8.815  1.00  0.00    +0.184 C 
ATOM      2  C   UNL     1      20.754   2.862  -9.640  1.00  0.00    +0.178 C 
ATOM      3  O   UNL     1      21.525   4.029  -9.987  1.00  0.00    -0.341 OA
ATOM      4  C   UNL     1      22.204   4.693  -8.918  1.00  0.00    +0.282 C 
ATOM      5  C   UNL     1      23.037   3.720  -8.061  1.00  0.00    +0.202 C 
ATOM      6  C   UNL     1      22.202   2.523  -7.604  1.00  0.00    +0.180 C 
ENDROOT
BRANCH   1   7
ATOM      7  O   UNL     1      20.692   0.784  -8.374  1.00  0.00    -0.341 OA
BRANCH   7   8
ATOM      8  C   UNL     1      21.132  -0.503  -8.826  1.00  0.00    +0.282 C 
ATOM      9  C   UNL     1      19.376  -2.673  -9.847  1.00  0.00    +0.184 C 
ATOM     10  C   UNL     1      19.556  -1.286 -10.514  1.00  0.00    +0.178 C 
ATOM     11  C   UNL     1      20.330  -2.872  -8.653  1.00  0.00    +0.180 C 
ATOM     12  O   UNL     1      20.821  -0.682 -10.206  1.00  0.00    -0.341 OA
ATOM     13  C   UNL     1      20.542  -1.576  -7.889  1.00  0.00    +0.202 C 
BRANCH   9  14
ATOM     14  O   UNL     1      19.721  -3.720 -10.781  1.00  0.00    -0.341 OA
BRANCH  14  15
ATOM     15  C   UNL     1      18.648  -4.625 -11.047  1.00  0.00    +0.282 C 
ATOM     16  C   UNL     1      16.242  -4.856 -10.974  1.00  0.00    +0.178 C 
ATOM     17  C   UNL     1      16.208  -5.329 -12.436  1.00  0.00    +0.177 C 
ATOM     18  O   UNL     1      17.389  -4.033 -10.711  1.00  0.00    -0.341 OA
ATOM     19  C   UNL     1      17.539  -5.982 -12.832  1.00  0.00    +0.179 C 
ATOM     20  C   UNL     1      18.700  -5.035 -12.537  1.00  0.00    +0.202 C 
BRANCH  16  21
ATOM     21  C   UNL     1      16.129  -5.991  -9.943  1.00  0.00    +0.191 C 
BRANCH  21  22
ATOM     22  O   UNL     1      14.769  -6.173  -9.553  1.00  0.00    -0.394 OA
ATOM     23  H   UNL     1      14.369  -5.278  -9.449  1.00  0.00    +0.210 HD
ENDBRANCH  21  22
ENDBRANCH  16  21
BRANCH  17  24
ATOM     24  O   UNL     1      15.151  -6.261 -12.689  1.00  0.00    -0.387 OA
ATOM     25  H   UNL     1      15.257  -6.995 -12.056  1.00  0.00    +0.211 HD
ENDBRANCH  17  24
BRANCH  19  26
ATOM     26  O   UNL     1      17.514  -6.287 -14.238  1.00  0.00    -0.387 OA
ATOM     27  H   UNL     1      18.015  -5.562 -14.664  1.00  0.00    +0.211 HD
ENDBRANCH  19  26
BRANCH  20  28
ATOM     28  O   UNL     1      18.584  -3.898 -13.416  1.00  0.00    -0.385 OA
ATOM     29  H   UNL     1      18.099  -4.235 -14.196  1.00  0.00    +0.211 HD
ENDBRANCH  20  28
ENDBRANCH  14  15
ENDBRANCH   9  14
BRANCH  10  30
ATOM     30  C   UNL     1      18.395  -0.308 -10.257  1.00  0.00    +0.191 C 
BRANCH  30  31
ATOM     31  O   UNL     1      17.152  -0.823 -10.727  1.00  0.00    -0.394 OA
ATOM     32  H   UNL     1      17.362  -1.631 -11.232  1.00  0.00    +0.210 HD
ENDBRANCH  30  31
ENDBRANCH  10  30
BRANCH  11  33
ATOM     33  O   UNL     1      19.773  -3.855  -7.758  1.00  0.00    -0.387 OA
ATOM     34  H   UNL     1      18.885  -3.517  -7.524  1.00  0.00    +0.211 HD
ENDBRANCH  11  33
BRANCH  13  35
ATOM     35  O   UNL     1      19.274  -1.177  -7.324  1.00  0.00    -0.385 OA
ATOM     36  H   UNL     1      19.135  -1.789  -6.572  1.00  0.00    +0.211 HD
ENDBRANCH  13  35
ENDBRANCH   7   8
ENDBRANCH   1   7
BRANCH   2  37
ATOM     37  C   UNL     1      19.397   3.238  -9.018  1.00  0.00    +0.191 C 
BRANCH  37  38
ATOM     38  O   UNL     1      19.462   3.130  -7.596  1.00  0.00    -0.394 OA
ATOM     39  H   UNL     1      18.545   3.016  -7.286  1.00  0.00    +0.210 HD
ENDBRANCH  37  38
ENDBRANCH   2  37
BRANCH   6  40
ATOM     40  O   UNL     1      23.053   1.594  -6.912  1.00  0.00    -0.387 OA
ATOM     41  H   UNL     1      22.718   0.699  -7.120  1.00  0.00    +0.211 HD
ENDBRANCH   6  40
BRANCH   5  42
ATOM     42  O   UNL     1      23.610   4.352  -6.907  1.00  0.00    -0.385 OA
ATOM     43  H   UNL     1      23.943   3.645  -6.322  1.00  0.00    +0.211 HD
ENDBRANCH   5  42
BRANCH   4  44
ATOM     44  O   UNL     1      21.262   5.420  -8.122  1.00  0.00    -0.341 OA
BRANCH  44  45
ATOM     45  C   UNL     1      21.105   6.809  -8.506  1.00  0.00    +0.184 C 
ATOM     46  C   UNL     1      19.676   7.346  -8.222  1.00  0.00    +0.178 C 
ATOM     47  C   UNL     1      22.165   7.602  -7.696  1.00  0.00    +0.180 C 
ATOM     48  O   UNL     1      19.555   7.728  -6.839  1.00  0.00    -0.341 OA
ATOM     49  C   UNL     1      21.663   8.993  -7.334  1.00  0.00    +0.202 C 
ATOM     50  C   UNL     1      20.352   8.873  -6.512  1.00  0.00    +0.282 C 
BRANCH  46  51
ATOM     51  C   UNL     1      18.567   6.335  -8.516  1.00  0.00    +0.191 C 
BRANCH  51  52
ATOM     52  O   UNL     1      17.297   6.989  -8.504  1.00  0.00    -0.394 OA
ATOM     53  H   UNL     1      16.950   6.869  -7.600  1.00  0.00    +0.210 HD
ENDBRANCH  51  52
ENDBRANCH  46  51
BRANCH  47  54
ATOM     54  O   UNL     1      22.549   6.898  -6.505  1.00  0.00    -0.387 OA
ATOM     55  H   UNL     1      21.930   7.190  -5.806  1.00  0.00    +0.211 HD
ENDBRANCH  47  54
BRANCH  49  56
ATOM     56  O   UNL     1      21.467   9.742  -8.545  1.00  0.00    -0.385 OA
ATOM     57  H   UNL     1      21.026  10.578  -8.265  1.00  0.00    +0.211 HD
ENDBRANCH  49  56
BRANCH  50  58
ATOM     58  O   UNL     1      19.595  10.060  -6.743  1.00  0.00    -0.341 OA
BRANCH  58  59
ATOM     59  C   UNL     1      19.720  11.062  -5.734  1.00  0.00    +0.184 C 
ATOM     60  C   UNL     1      19.125  12.386  -6.282  1.00  0.00    +0.178 C 
ATOM     61  C   UNL     1      18.963  10.643  -4.468  1.00  0.00    +0.180 C 
ATOM     62  O   UNL     1      17.706  12.266  -6.519  1.00  0.00    -0.342 OA
ATOM     63  C   UNL     1      17.455  10.622  -4.724  1.00  0.00    +0.201 C 
ATOM     64  C   UNL     1      17.000  11.962  -5.327  1.00  0.00    +0.279 C 
BRANCH  60  65
ATOM     65  C   UNL     1      19.761  12.805  -7.619  1.00  0.00    +0.191 C 
BRANCH  65  66
ATOM     66  O   UNL     1      19.025  13.860  -8.246  1.00  0.00    -0.394 OA
ATOM     67  H   UNL     1      18.604  13.438  -9.023  1.00  0.00    +0.210 HD
ENDBRANCH  65  66
ENDBRANCH  60  65
BRANCH  61  68
ATOM     68  O   UNL     1      19.255  11.557  -3.401  1.00  0.00    -0.387 OA
ATOM     69  H   UNL     1      18.415  12.041  -3.254  1.00  0.00    +0.211 HD
ENDBRANCH  61  68
BRANCH  63  70
ATOM     70  O   UNL     1      16.777  10.372  -3.482  1.00  0.00    -0.385 OA
ATOM     71  H   UNL     1      15.939  10.874  -3.552  1.00  0.00    +0.211 HD
ENDBRANCH  63  70
BRANCH  64  72
ATOM     72  O   UNL     1      15.618  11.849  -5.646  1.00  0.00    -0.366 OA
ATOM     73  H   UNL     1      15.319  11.054  -5.173  1.00  0.00    +0.213 HD
ENDBRANCH  64  72
ENDBRANCH  58  59
ENDBRANCH  50  58
ENDBRANCH  44  45
ENDBRANCH   4  44
TORSDOF 30
ENDMDL
