MODEL 1
REMARK VINA RESULT:    -7.754      0.000      0.000
REMARK INTER + INTRA:         -21.585
REMARK INTER:                 -17.500
REMARK INTRA:                  -4.086
REMARK UNBOUND:                -4.086
REMARK SMILES OC[C@H]1O[C@H](O[C@H]2[C@H](O)[C@H](O)[C@H](O[C@@H]3[C@@H](O)[C@H](O)[C@H](O[C@@H]4[C@H](O)[C@@H](O)[C@@H](O[C@@H]5[C@@H](O)[C@@H](O)[C@H](O)O[C@@H]5CO)O[C@@H]4CO)O[C@@H]3CO)O[C@@H]2CO)[C@H](O)[C@H](O)[C@H]1O
REMARK SMILES IDX 14 1 44 2 43 3 19 4 17 5 15 6 13 7 12 8 7 9 48 10 8 11 47 12
REMARK SMILES IDX 10 13 6 14 5 15 3 16 55 17 4 18 53 19 51 20 2 21 1 22 56 24
REMARK SMILES IDX 54 26 52 28 49 30 50 31 9 33 11 35 45 37 46 38 16 40 18 42
REMARK SMILES IDX 20 44 21 45 40 46 22 47 39 48 24 49 26 50 41 51 42 52 23 54
REMARK SMILES IDX 25 56 27 58 28 59 36 60 29 61 35 62 31 63 33 64 37 65 38 66
REMARK SMILES IDX 30 68 32 70 34 72
REMARK H PARENT 1 23 56 25 54 27 52 29 50 32 9 34 11 36 46 39 16 41 18 43
REMARK H PARENT 42 53 23 55 25 57 38 67 30 69 32 71 34 73
ROOT
ATOM      1  C   UNL     1       8.954   3.620 -12.043  1.00  0.00    +0.184 C 
ATOM      2  C   UNL     1       8.154   3.770 -13.347  1.00  0.00    +0.178 C 
ATOM      3  O   UNL     1       8.911   4.404 -14.395  1.00  0.00    -0.341 OA
ATOM      4  C   UNL     1       9.549   5.642 -14.070  1.00  0.00    +0.282 C 
ATOM      5  C   UNL     1      10.378   5.549 -12.774  1.00  0.00    +0.202 C 
ATOM      6  C   UNL     1       9.555   4.965 -11.625  1.00  0.00    +0.180 C 
ENDROOT
BRANCH   1   7
ATOM      7  O   UNL     1       8.099   3.125 -11.000  1.00  0.00    -0.341 OA
BRANCH   7   8
ATOM      8  C   UNL     1       8.079   1.693 -10.945  1.00  0.00    +0.282 C 
ATOM      9  C   UNL     1       7.235   0.061  -8.609  1.00  0.00    +0.184 C 
ATOM     10  C   UNL     1       6.314   1.025  -9.400  1.00  0.00    +0.178 C 
ATOM     11  C   UNL     1       8.626  -0.078  -9.258  1.00  0.00    +0.180 C 
ATOM     12  O   UNL     1       6.748   1.218 -10.755  1.00  0.00    -0.341 OA
ATOM     13  C   UNL     1       9.086   1.232  -9.873  1.00  0.00    +0.202 C 
BRANCH   9  14
ATOM     14  O   UNL     1       6.681  -1.273  -8.620  1.00  0.00    -0.341 OA
BRANCH  14  15
ATOM     15  C   UNL     1       6.581  -1.861  -7.322  1.00  0.00    +0.282 C 
ATOM     16  C   UNL     1       7.396  -1.699  -5.051  1.00  0.00    +0.178 C 
ATOM     17  C   UNL     1       5.961  -1.690  -4.500  1.00  0.00    +0.177 C 
ATOM     18  O   UNL     1       7.448  -1.199  -6.396  1.00  0.00    -0.341 OA
ATOM     19  C   UNL     1       5.000  -2.402  -5.459  1.00  0.00    +0.179 C 
ATOM     20  C   UNL     1       5.107  -1.798  -6.858  1.00  0.00    +0.202 C 
BRANCH  16  21
ATOM     21  C   UNL     1       8.103  -3.059  -4.939  1.00  0.00    +0.191 C 
BRANCH  21  22
ATOM     22  O   UNL     1       8.420  -3.343  -3.577  1.00  0.00    -0.394 OA
ATOM     23  H   UNL     1       7.696  -2.971  -3.021  1.00  0.00    +0.210 HD
ENDBRANCH  21  22
ENDBRANCH  16  21
BRANCH  17  24
ATOM     24  O   UNL     1       5.861  -2.309  -3.213  1.00  0.00    -0.387 OA
ATOM     25  H   UNL     1       6.768  -2.523  -2.925  1.00  0.00    +0.211 HD
ENDBRANCH  17  24
BRANCH  19  26
ATOM     26  O   UNL     1       3.653  -2.254  -4.975  1.00  0.00    -0.387 OA
ATOM     27  H   UNL     1       3.338  -3.167  -4.819  1.00  0.00    +0.211 HD
ENDBRANCH  19  26
BRANCH  20  28
ATOM     28  O   UNL     1       4.614  -0.445  -6.799  1.00  0.00    -0.385 OA
ATOM     29  H   UNL     1       5.189   0.057  -7.411  1.00  0.00    +0.211 HD
ENDBRANCH  20  28
ENDBRANCH  14  15
ENDBRANCH   9  14
BRANCH  10  30
ATOM     30  C   UNL     1       6.061   2.371  -8.699  1.00  0.00    +0.191 C 
BRANCH  30  31
ATOM     31  O   UNL     1       5.819   3.421  -9.633  1.00  0.00    -0.394 OA
ATOM     32  H   UNL     1       5.117   3.102 -10.230  1.00  0.00    +0.210 HD
ENDBRANCH  30  31
ENDBRANCH  10  30
BRANCH  11  33
ATOM     33  O   UNL     1       9.580  -0.483  -8.256  1.00  0.00    -0.387 OA
ATOM     34  H   UNL     1      10.430  -0.087  -8.534  1.00  0.00    +0.211 HD
ENDBRANCH  11  33
BRANCH  13  35
ATOM     35  O   UNL     1       9.237   2.197  -8.809  1.00  0.00    -0.385 OA
ATOM     36  H   UNL     1       9.835   2.880  -9.177  1.00  0.00    +0.211 HD
ENDBRANCH  13  35
ENDBRANCH   7   8
ENDBRANCH   1   7
BRANCH   2  37
ATOM     37  C   UNL     1       6.774   4.427 -13.159  1.00  0.00    +0.191 C 
BRANCH  37  38
ATOM     38  O   UNL     1       5.847   3.479 -12.632  1.00  0.00    -0.394 OA
ATOM     39  H   UNL     1       5.237   3.979 -12.058  1.00  0.00    +0.210 HD
ENDBRANCH  37  38
ENDBRANCH   2  37
BRANCH   6  40
ATOM     40  O   UNL     1      10.406   4.792 -10.480  1.00  0.00    -0.387 OA
ATOM     41  H   UNL     1      10.099   3.983 -10.023  1.00  0.00    +0.211 HD
ENDBRANCH   6  40
BRANCH   5  42
ATOM     42  O   UNL     1      10.910   6.818 -12.366  1.00  0.00    -0.385 OA
ATOM     43  H   UNL     1      11.818   6.663 -12.042  1.00  0.00    +0.211 HD
ENDBRANCH   5  42
BRANCH   4  44
ATOM     44  O   UNL     1       8.574   6.686 -13.995  1.00  0.00    -0.341 OA
BRANCH  44  45
ATOM     45  C   UNL     1       8.689   7.685 -15.040  1.00  0.00    +0.184 C 
ATOM     46  C   UNL     1       7.393   7.815 -15.884  1.00  0.00    +0.178 C 
ATOM     47  C   UNL     1       9.018   9.022 -14.322  1.00  0.00    +0.180 C 
ATOM     48  O   UNL     1       6.440   8.654 -15.205  1.00  0.00    -0.341 OA
ATOM     49  C   UNL     1       8.400  10.209 -15.047  1.00  0.00    +0.202 C 
ATOM     50  C   UNL     1       6.862  10.021 -15.134  1.00  0.00    +0.282 C 
BRANCH  46  51
ATOM     51  C   UNL     1       6.705   6.479 -16.168  1.00  0.00    +0.191 C 
BRANCH  51  52
ATOM     52  O   UNL     1       5.368   6.503 -15.664  1.00  0.00    -0.394 OA
ATOM     53  H   UNL     1       4.802   6.698 -16.434  1.00  0.00    +0.210 HD
ENDBRANCH  51  52
ENDBRANCH  46  51
BRANCH  47  54
ATOM     54  O   UNL     1       8.579   9.004 -12.955  1.00  0.00    -0.387 OA
ATOM     55  H   UNL     1       8.516   9.941 -12.679  1.00  0.00    +0.211 HD
ENDBRANCH  47  54
BRANCH  49  56
ATOM     56  O   UNL     1       8.998  10.316 -16.350  1.00  0.00    -0.385 OA
ATOM     57  H   UNL     1       9.290   9.403 -16.578  1.00  0.00    +0.211 HD
ENDBRANCH  49  56
BRANCH  50  58
ATOM     58  O   UNL     1       6.412  10.719 -16.293  1.00  0.00    -0.341 OA
BRANCH  58  59
ATOM     59  C   UNL     1       5.357  11.654 -16.066  1.00  0.00    +0.184 C 
ATOM     60  C   UNL     1       5.002  12.329 -17.416  1.00  0.00    +0.178 C 
ATOM     61  C   UNL     1       4.122  10.939 -15.506  1.00  0.00    +0.180 C 
ATOM     62  O   UNL     1       4.461  11.374 -18.355  1.00  0.00    -0.342 OA
ATOM     63  C   UNL     1       3.514  10.009 -16.559  1.00  0.00    +0.201 C 
ATOM     64  C   UNL     1       3.270  10.778 -17.868  1.00  0.00    +0.279 C 
BRANCH  60  65
ATOM     65  C   UNL     1       6.227  12.967 -18.094  1.00  0.00    +0.191 C 
BRANCH  65  66
ATOM     66  O   UNL     1       7.115  13.551 -17.136  1.00  0.00    -0.394 OA
ATOM     67  H   UNL     1       7.605  14.233 -17.640  1.00  0.00    +0.210 HD
ENDBRANCH  65  66
ENDBRANCH  60  65
BRANCH  61  68
ATOM     68  O   UNL     1       3.143  11.906 -15.099  1.00  0.00    -0.387 OA
ATOM     69  H   UNL     1       2.495  11.394 -14.569  1.00  0.00    +0.211 HD
ENDBRANCH  61  68
BRANCH  63  70
ATOM     70  O   UNL     1       2.281   9.476 -16.050  1.00  0.00    -0.385 OA
ATOM     71  H   UNL     1       2.067   8.731 -16.649  1.00  0.00    +0.211 HD
ENDBRANCH  63  70
BRANCH  64  72
ATOM     72  O   UNL     1       2.810   9.846 -18.841  1.00  0.00    -0.366 OA
ATOM     73  H   UNL     1       2.098   9.356 -18.396  1.00  0.00    +0.213 HD
ENDBRANCH  64  72
ENDBRANCH  58  59
ENDBRANCH  50  58
ENDBRANCH  44  45
ENDBRANCH   4  44
TORSDOF 30
ENDMDL
MODEL 2
REMARK VINA RESULT:    -7.464      9.852     20.815
REMARK INTER + INTRA:         -20.930
REMARK INTER:                 -17.097
REMARK INTRA:                  -3.833
REMARK UNBOUND:                -4.086
REMARK SMILES OC[C@H]1O[C@H](O[C@H]2[C@H](O)[C@H](O)[C@H](O[C@@H]3[C@@H](O)[C@H](O)[C@H](O[C@@H]4[C@H](O)[C@@H](O)[C@@H](O[C@@H]5[C@@H](O)[C@@H](O)[C@H](O)O[C@@H]5CO)O[C@@H]4CO)O[C@@H]3CO)O[C@@H]2CO)[C@H](O)[C@H](O)[C@H]1O
REMARK SMILES IDX 14 1 44 2 43 3 19 4 17 5 15 6 13 7 12 8 7 9 48 10 8 11 47 12
REMARK SMILES IDX 10 13 6 14 5 15 3 16 55 17 4 18 53 19 51 20 2 21 1 22 56 24
REMARK SMILES IDX 54 26 52 28 49 30 50 31 9 33 11 35 45 37 46 38 16 40 18 42
REMARK SMILES IDX 20 44 21 45 40 46 22 47 39 48 24 49 26 50 41 51 42 52 23 54
REMARK SMILES IDX 25 56 27 58 28 59 36 60 29 61 35 62 31 63 33 64 37 65 38 66
REMARK SMILES IDX 30 68 32 70 34 72
REMARK H PARENT 1 23 56 25 54 27 52 29 50 32 9 34 11 36 46 39 16 41 18 43
REMARK H PARENT 42 53 23 55 25 57 38 67 30 69 32 71 34 73
ROOT
ATOM      1  C   UNL     1      10.477 -10.061  -7.093  1.00  0.00    +0.184 C 
ATOM      2  C   UNL     1      10.078 -10.254  -5.621  1.00  0.00    +0.178 C 
ATOM      3  O   UNL     1      10.864 -11.264  -4.959  1.00  0.00    -0.341 OA
ATOM      4  C   UNL     1      10.959 -12.534  -5.609  1.00  0.00    +0.282 C 
ATOM      5  C   UNL     1      11.367 -12.405  -7.089  1.00  0.00    +0.202 C 
ATOM      6  C   UNL     1      10.477 -11.405  -7.828  1.00  0.00    +0.180 C 
ENDROOT
BRANCH   1   7
ATOM      7  O   UNL     1       9.560  -9.159  -7.731  1.00  0.00    -0.341 OA
BRANCH   7   8
ATOM      8  C   UNL     1      10.111  -7.844  -7.891  1.00  0.00    +0.282 C 
ATOM      9  C   UNL     1       8.587  -5.298  -7.737  1.00  0.00    +0.184 C 
ATOM     10  C   UNL     1       8.766  -6.300  -6.568  1.00  0.00    +0.178 C 
ATOM     11  C   UNL     1       9.418  -5.693  -8.973  1.00  0.00    +0.180 C 
ATOM     12  O   UNL     1       9.958  -7.089  -6.692  1.00  0.00    -0.341 OA
ATOM     13  C   UNL     1       9.481  -7.201  -9.143  1.00  0.00    +0.202 C 
BRANCH   9  14
ATOM     14  O   UNL     1       9.083  -3.996  -7.352  1.00  0.00    -0.341 OA
BRANCH  14  15
ATOM     15  C   UNL     1       8.104  -3.179  -6.709  1.00  0.00    +0.282 C 
ATOM     16  C   UNL     1       7.434  -2.278  -4.567  1.00  0.00    +0.178 C 
ATOM     17  C   UNL     1       7.368  -0.856  -5.147  1.00  0.00    +0.177 C 
ATOM     18  O   UNL     1       8.349  -3.106  -5.301  1.00  0.00    -0.341 OA
ATOM     19  C   UNL     1       7.094  -0.891  -6.656  1.00  0.00    +0.179 C 
ATOM     20  C   UNL     1       8.121  -1.776  -7.359  1.00  0.00    +0.202 C 
BRANCH  16  21
ATOM     21  C   UNL     1       6.064  -2.962  -4.424  1.00  0.00    +0.191 C 
BRANCH  21  22
ATOM     22  O   UNL     1       5.500  -2.678  -3.145  1.00  0.00    -0.394 OA
ATOM     23  H   UNL     1       4.815  -1.980  -3.271  1.00  0.00    +0.210 HD
ENDBRANCH  21  22
ENDBRANCH  16  21
BRANCH  17  24
ATOM     24  O   UNL     1       6.363  -0.051  -4.521  1.00  0.00    -0.387 OA
ATOM     25  H   UNL     1       5.924   0.461  -5.226  1.00  0.00    +0.211 HD
ENDBRANCH  17  24
BRANCH  19  26
ATOM     26  O   UNL     1       7.174   0.446  -7.181  1.00  0.00    -0.387 OA
ATOM     27  H   UNL     1       6.261   0.795  -7.130  1.00  0.00    +0.211 HD
ENDBRANCH  19  26
BRANCH  20  28
ATOM     28  O   UNL     1       9.410  -1.141  -7.244  1.00  0.00    -0.385 OA
ATOM     29  H   UNL     1       9.211  -0.201  -7.060  1.00  0.00    +0.211 HD
ENDBRANCH  20  28
ENDBRANCH  14  15
ENDBRANCH   9  14
BRANCH  10  30
ATOM     30  C   UNL     1       7.535  -7.187  -6.306  1.00  0.00    +0.191 C 
BRANCH  30  31
ATOM     31  O   UNL     1       7.164  -7.189  -4.930  1.00  0.00    -0.394 OA
ATOM     32  H   UNL     1       6.484  -6.497  -4.827  1.00  0.00    +0.210 HD
ENDBRANCH  30  31
ENDBRANCH  10  30
BRANCH  11  33
ATOM     33  O   UNL     1       8.821  -5.116 -10.152  1.00  0.00    -0.387 OA
ATOM     34  H   UNL     1       9.246  -4.240 -10.254  1.00  0.00    +0.211 HD
ENDBRANCH  11  33
BRANCH  13  35
ATOM     35  O   UNL     1       8.141  -7.679  -9.392  1.00  0.00    -0.385 OA
ATOM     36  H   UNL     1       7.596  -7.261  -8.694  1.00  0.00    +0.211 HD
ENDBRANCH  13  35
ENDBRANCH   7   8
ENDBRANCH   1   7
BRANCH   2  37
ATOM     37  C   UNL     1       8.570 -10.471  -5.406  1.00  0.00    +0.191 C 
BRANCH  37  38
ATOM     38  O   UNL     1       8.147  -9.826  -4.206  1.00  0.00    -0.394 OA
ATOM     39  H   UNL     1       8.835  -9.170  -3.988  1.00  0.00    +0.210 HD
ENDBRANCH  37  38
ENDBRANCH   2  37
BRANCH   6  40
ATOM     40  O   UNL     1      10.973 -11.236  -9.167  1.00  0.00    -0.387 OA
ATOM     41  H   UNL     1      10.645 -10.368  -9.479  1.00  0.00    +0.211 HD
ENDBRANCH   6  40
BRANCH   5  42
ATOM     42  O   UNL     1      11.331 -13.660  -7.785  1.00  0.00    -0.385 OA
ATOM     43  H   UNL     1      11.967 -14.256  -7.343  1.00  0.00    +0.211 HD
ENDBRANCH   5  42
BRANCH   4  44
ATOM     44  O   UNL     1       9.726 -13.246  -5.465  1.00  0.00    -0.341 OA
BRANCH  44  45
ATOM     45  C   UNL     1       9.775 -14.338  -4.511  1.00  0.00    +0.184 C 
ATOM     46  C   UNL     1       8.531 -14.375  -3.584  1.00  0.00    +0.178 C 
ATOM     47  C   UNL     1       9.878 -15.639  -5.352  1.00  0.00    +0.180 C 
ATOM     48  O   UNL     1       7.433 -15.025  -4.251  1.00  0.00    -0.341 OA
ATOM     49  C   UNL     1       9.157 -16.796  -4.676  1.00  0.00    +0.202 C 
ATOM     50  C   UNL     1       7.666 -16.423  -4.459  1.00  0.00    +0.282 C 
BRANCH  46  51
ATOM     51  C   UNL     1       8.046 -12.991  -3.148  1.00  0.00    +0.191 C 
BRANCH  51  52
ATOM     52  O   UNL     1       9.139 -12.236  -2.623  1.00  0.00    -0.394 OA
ATOM     53  H   UNL     1       8.955 -11.308  -2.863  1.00  0.00    +0.210 HD
ENDBRANCH  51  52
ENDBRANCH  46  51
BRANCH  47  54
ATOM     54  O   UNL     1       9.357 -15.449  -6.677  1.00  0.00    -0.387 OA
ATOM     55  H   UNL     1       8.524 -14.948  -6.571  1.00  0.00    +0.211 HD
ENDBRANCH  47  54
BRANCH  49  56
ATOM     56  O   UNL     1       9.819 -17.089  -3.433  1.00  0.00    -0.385 OA
ATOM     57  H   UNL     1      10.132 -16.219  -3.094  1.00  0.00    +0.211 HD
ENDBRANCH  49  56
BRANCH  50  58
ATOM     58  O   UNL     1       7.204 -17.155  -3.325  1.00  0.00    -0.341 OA
BRANCH  58  59
ATOM     59  C   UNL     1       5.793 -17.109  -3.109  1.00  0.00    +0.184 C 
ATOM     60  C   UNL     1       5.364 -18.417  -2.395  1.00  0.00    +0.178 C 
ATOM     61  C   UNL     1       5.426 -15.902  -2.238  1.00  0.00    +0.180 C 
ATOM     62  O   UNL     1       5.943 -18.510  -1.075  1.00  0.00    -0.342 OA
ATOM     63  C   UNL     1       5.969 -16.077  -0.818  1.00  0.00    +0.201 C 
ATOM     64  C   UNL     1       5.532 -17.436  -0.246  1.00  0.00    +0.279 C 
BRANCH  60  65
ATOM     65  C   UNL     1       5.808 -19.676  -3.160  1.00  0.00    +0.191 C 
BRANCH  65  66
ATOM     66  O   UNL     1       5.732 -19.487  -4.576  1.00  0.00    -0.394 OA
ATOM     67  H   UNL     1       6.539 -19.918  -4.925  1.00  0.00    +0.210 HD
ENDBRANCH  65  66
ENDBRANCH  60  65
BRANCH  61  68
ATOM     68  O   UNL     1       3.999 -15.753  -2.190  1.00  0.00    -0.387 OA
ATOM     69  H   UNL     1       3.653 -16.668  -2.260  1.00  0.00    +0.211 HD
ENDBRANCH  61  68
BRANCH  63  70
ATOM     70  O   UNL     1       5.479 -15.003   0.002  1.00  0.00    -0.385 OA
ATOM     71  H   UNL     1       5.656 -14.193  -0.519  1.00  0.00    +0.211 HD
ENDBRANCH  63  70
BRANCH  64  72
ATOM     72  O   UNL     1       6.152 -17.594   1.025  1.00  0.00    -0.366 OA
ATOM     73  H   UNL     1       5.762 -16.896   1.579  1.00  0.00    +0.213 HD
ENDBRANCH  64  72
ENDBRANCH  58  59
ENDBRANCH  50  58
ENDBRANCH  44  45
ENDBRANCH   4  44
TORSDOF 30
ENDMDL
MODEL 3
REMARK VINA RESULT:    -7.449     15.134     27.501
REMARK INTER + INTRA:         -20.897
REMARK INTER:                 -17.499
REMARK INTRA:                  -3.398
REMARK UNBOUND:                -4.086
REMARK SMILES OC[C@H]1O[C@H](O[C@H]2[C@H](O)[C@H](O)[C@H](O[C@@H]3[C@@H](O)[C@H](O)[C@H](O[C@@H]4[C@H](O)[C@@H](O)[C@@H](O[C@@H]5[C@@H](O)[C@@H](O)[C@H](O)O[C@@H]5CO)O[C@@H]4CO)O[C@@H]3CO)O[C@@H]2CO)[C@H](O)[C@H](O)[C@H]1O
REMARK SMILES IDX 14 1 44 2 43 3 19 4 17 5 15 6 13 7 12 8 7 9 48 10 8 11 47 12
REMARK SMILES IDX 10 13 6 14 5 15 3 16 55 17 4 18 53 19 51 20 2 21 1 22 56 24
REMARK SMILES IDX 54 26 52 28 49 30 50 31 9 33 11 35 45 37 46 38 16 40 18 42
REMARK SMILES IDX 20 44 21 45 40 46 22 47 39 48 24 49 26 50 41 51 42 52 23 54
REMARK SMILES IDX 25 56 27 58 28 59 36 60 29 61 35 62 31 63 33 64 37 65 38 66
REMARK SMILES IDX 30 68 32 70 34 72
REMARK H PARENT 1 23 56 25 54 27 52 29 50 32 9 34 11 36 46 39 16 41 18 43
REMARK H PARENT 42 53 23 55 25 57 38 67 30 69 32 71 34 73
ROOT
ATOM      1  C   UNL     1       7.508 -16.547  -1.877  1.00  0.00    +0.184 C 
ATOM      2  C   UNL     1       8.633 -16.730  -0.845  1.00  0.00    +0.178 C 
ATOM      3  O   UNL     1       8.931 -18.115  -0.585  1.00  0.00    -0.341 OA
ATOM      4  C   UNL     1       7.826 -18.960  -0.256  1.00  0.00    +0.282 C 
ATOM      5  C   UNL     1       6.668 -18.828  -1.264  1.00  0.00    +0.202 C 
ATOM      6  C   UNL     1       6.277 -17.365  -1.477  1.00  0.00    +0.180 C 
ENDROOT
BRANCH   1   7
ATOM      7  O   UNL     1       7.158 -15.158  -1.975  1.00  0.00    -0.341 OA
BRANCH   7   8
ATOM      8  C   UNL     1       8.290 -14.330  -2.272  1.00  0.00    +0.282 C 
ATOM      9  C   UNL     1       8.189 -11.666  -3.586  1.00  0.00    +0.184 C 
ATOM     10  C   UNL     1       7.557 -12.005  -2.212  1.00  0.00    +0.178 C 
ATOM     11  C   UNL     1       9.018 -12.837  -4.149  1.00  0.00    +0.180 C 
ATOM     12  O   UNL     1       8.212 -13.100  -1.555  1.00  0.00    -0.341 OA
ATOM     13  C   UNL     1       8.393 -14.178  -3.803  1.00  0.00    +0.202 C 
BRANCH   9  14
ATOM     14  O   UNL     1       9.128 -10.577  -3.443  1.00  0.00    -0.341 OA
BRANCH  14  15
ATOM     15  C   UNL     1       8.632  -9.328  -3.926  1.00  0.00    +0.282 C 
ATOM     16  C   UNL     1       9.062  -6.948  -3.949  1.00  0.00    +0.178 C 
ATOM     17  C   UNL     1       8.939  -6.905  -5.481  1.00  0.00    +0.177 C 
ATOM     18  O   UNL     1       9.461  -8.247  -3.486  1.00  0.00    -0.341 OA
ATOM     19  C   UNL     1       8.046  -8.043  -5.991  1.00  0.00    +0.179 C 
ATOM     20  C   UNL     1       8.551  -9.386  -5.469  1.00  0.00    +0.202 C 
BRANCH  16  21
ATOM     21  C   UNL     1       7.809  -6.458  -3.205  1.00  0.00    +0.191 C 
BRANCH  21  22
ATOM     22  O   UNL     1       8.144  -6.067  -1.874  1.00  0.00    -0.394 OA
ATOM     23  H   UNL     1       8.713  -5.265  -1.936  1.00  0.00    +0.210 HD
ENDBRANCH  21  22
ENDBRANCH  16  21
BRANCH  17  24
ATOM     24  O   UNL     1       8.411  -5.663  -5.957  1.00  0.00    -0.387 OA
ATOM     25  H   UNL     1       7.911  -5.857  -6.772  1.00  0.00    +0.211 HD
ENDBRANCH  17  24
BRANCH  19  26
ATOM     26  O   UNL     1       8.066  -8.050  -7.429  1.00  0.00    -0.387 OA
ATOM     27  H   UNL     1       7.724  -7.172  -7.693  1.00  0.00    +0.211 HD
ENDBRANCH  19  26
BRANCH  20  28
ATOM     28  O   UNL     1       9.836  -9.644  -6.069  1.00  0.00    -0.385 OA
ATOM     29  H   UNL     1       9.900  -9.004  -6.806  1.00  0.00    +0.211 HD
ENDBRANCH  20  28
ENDBRANCH  14  15
ENDBRANCH   9  14
BRANCH  10  30
ATOM     30  C   UNL     1       6.032 -12.213  -2.254  1.00  0.00    +0.191 C 
BRANCH  30  31
ATOM     31  O   UNL     1       5.575 -13.022  -1.174  1.00  0.00    -0.394 OA
ATOM     32  H   UNL     1       4.824 -13.542  -1.519  1.00  0.00    +0.210 HD
ENDBRANCH  30  31
ENDBRANCH  10  30
BRANCH  11  33
ATOM     33  O   UNL     1       9.097 -12.716  -5.584  1.00  0.00    -0.387 OA
ATOM     34  H   UNL     1       9.683 -11.949  -5.746  1.00  0.00    +0.211 HD
ENDBRANCH  11  33
BRANCH  13  35
ATOM     35  O   UNL     1       7.105 -14.251  -4.451  1.00  0.00    -0.385 OA
ATOM     36  H   UNL     1       7.100 -13.498  -5.078  1.00  0.00    +0.211 HD
ENDBRANCH  13  35
ENDBRANCH   7   8
ENDBRANCH   1   7
BRANCH   2  37
ATOM     37  C   UNL     1       8.421 -15.936   0.456  1.00  0.00    +0.191 C 
BRANCH  37  38
ATOM     38  O   UNL     1       9.669 -15.438   0.937  1.00  0.00    -0.394 OA
ATOM     39  H   UNL     1      10.308 -16.170   0.855  1.00  0.00    +0.210 HD
ENDBRANCH  37  38
ENDBRANCH   2  37
BRANCH   6  40
ATOM     40  O   UNL     1       5.279 -17.292  -2.509  1.00  0.00    -0.387 OA
ATOM     41  H   UNL     1       5.489 -17.999  -3.152  1.00  0.00    +0.211 HD
ENDBRANCH   6  40
BRANCH   5  42
ATOM     42  O   UNL     1       5.502 -19.567  -0.868  1.00  0.00    -0.385 OA
ATOM     43  H   UNL     1       5.748 -20.512  -0.853  1.00  0.00    +0.211 HD
ENDBRANCH   5  42
BRANCH   4  44
ATOM     44  O   UNL     1       7.391 -18.691   1.081  1.00  0.00    -0.341 OA
BRANCH  44  45
ATOM     45  C   UNL     1       7.441 -19.838   1.966  1.00  0.00    +0.184 C 
ATOM     46  C   UNL     1       8.285 -19.570   3.241  1.00  0.00    +0.178 C 
ATOM     47  C   UNL     1       5.968 -20.161   2.336  1.00  0.00    +0.180 C 
ATOM     48  O   UNL     1       7.497 -18.865   4.219  1.00  0.00    -0.341 OA
ATOM     49  C   UNL     1       5.856 -20.703   3.753  1.00  0.00    +0.202 C 
ATOM     50  C   UNL     1       6.437 -19.668   4.753  1.00  0.00    +0.282 C 
BRANCH  46  51
ATOM     51  C   UNL     1       9.543 -18.739   2.984  1.00  0.00    +0.191 C 
BRANCH  51  52
ATOM     52  O   UNL     1       9.286 -17.364   3.276  1.00  0.00    -0.394 OA
ATOM     53  H   UNL     1       9.849 -16.857   2.662  1.00  0.00    +0.210 HD
ENDBRANCH  51  52
ENDBRANCH  46  51
BRANCH  47  54
ATOM     54  O   UNL     1       5.126 -19.007   2.189  1.00  0.00    -0.387 OA
ATOM     55  H   UNL     1       5.725 -18.234   2.179  1.00  0.00    +0.211 HD
ENDBRANCH  47  54
BRANCH  49  56
ATOM     56  O   UNL     1       6.553 -21.959   3.823  1.00  0.00    -0.385 OA
ATOM     57  H   UNL     1       6.231 -22.479   3.050  1.00  0.00    +0.211 HD
ENDBRANCH  49  56
BRANCH  50  58
ATOM     58  O   UNL     1       6.912 -20.390   5.887  1.00  0.00    -0.341 OA
BRANCH  58  59
ATOM     59  C   UNL     1       6.343 -19.998   7.136  1.00  0.00    +0.184 C 
ATOM     60  C   UNL     1       6.140 -21.269   8.003  1.00  0.00    +0.178 C 
ATOM     61  C   UNL     1       7.273 -19.021   7.864  1.00  0.00    +0.180 C 
ATOM     62  O   UNL     1       7.404 -21.880   8.341  1.00  0.00    -0.342 OA
ATOM     63  C   UNL     1       8.560 -19.724   8.298  1.00  0.00    +0.201 C 
ATOM     64  C   UNL     1       8.227 -21.000   9.089  1.00  0.00    +0.279 C 
BRANCH  60  65
ATOM     65  C   UNL     1       5.310 -22.344   7.281  1.00  0.00    +0.191 C 
BRANCH  65  66
ATOM     66  O   UNL     1       4.240 -21.767   6.527  1.00  0.00    -0.394 OA
ATOM     67  H   UNL     1       4.524 -21.852   5.593  1.00  0.00    +0.210 HD
ENDBRANCH  65  66
ENDBRANCH  60  65
BRANCH  61  68
ATOM     68  O   UNL     1       6.608 -18.484   9.018  1.00  0.00    -0.387 OA
ATOM     69  H   UNL     1       7.150 -18.786   9.778  1.00  0.00    +0.211 HD
ENDBRANCH  61  68
BRANCH  63  70
ATOM     70  O   UNL     1       9.335 -18.820   9.103  1.00  0.00    -0.385 OA
ATOM     71  H   UNL     1       9.991 -19.390   9.554  1.00  0.00    +0.211 HD
ENDBRANCH  63  70
BRANCH  64  72
ATOM     72  O   UNL     1       9.451 -21.671   9.372  1.00  0.00    -0.366 OA
ATOM     73  H   UNL     1       9.973 -21.583   8.556  1.00  0.00    +0.213 HD
ENDBRANCH  64  72
ENDBRANCH  58  59
ENDBRANCH  50  58
ENDBRANCH  44  45
ENDBRANCH   4  44
TORSDOF 30
ENDMDL
MODEL 4
REMARK VINA RESULT:    -7.348      3.610     13.615
REMARK INTER + INTRA:         -20.670
REMARK INTER:                 -16.096
REMARK INTRA:                  -4.574
REMARK UNBOUND:                -4.086
REMARK SMILES OC[C@H]1O[C@H](O[C@H]2[C@H](O)[C@H](O)[C@H](O[C@@H]3[C@@H](O)[C@H](O)[C@H](O[C@@H]4[C@H](O)[C@@H](O)[C@@H](O[C@@H]5[C@@H](O)[C@@H](O)[C@H](O)O[C@@H]5CO)O[C@@H]4CO)O[C@@H]3CO)O[C@@H]2CO)[C@H](O)[C@H](O)[C@H]1O
REMARK SMILES IDX 14 1 44 2 43 3 19 4 17 5 15 6 13 7 12 8 7 9 48 10 8 11 47 12
REMARK SMILES IDX 10 13 6 14 5 15 3 16 55 17 4 18 53 19 51 20 2 21 1 22 56 24
REMARK SMILES IDX 54 26 52 28 49 30 50 31 9 33 11 35 45 37 46 38 16 40 18 42
REMARK SMILES IDX 20 44 21 45 40 46 22 47 39 48 24 49 26 50 41 51 42 52 23 54
REMARK SMILES IDX 25 56 27 58 28 59 36 60 29 61 35 62 31 63 33 64 37 65 38 66
REMARK SMILES IDX 30 68 32 70 34 72
REMARK H PARENT 1 23 56 25 54 27 52 29 50 32 9 34 11 36 46 39 16 41 18 43
REMARK H PARENT 42 53 23 55 25 57 38 67 30 69 32 71 34 73
ROOT
ATOM      1  C   UNL     1       3.198   4.240 -15.359  1.00  0.00    +0.184 C 
ATOM      2  C   UNL     1       4.618   4.313 -14.774  1.00  0.00    +0.178 C 
ATOM      3  O   UNL     1       5.373   3.106 -14.992  1.00  0.00    -0.341 OA
ATOM      4  C   UNL     1       4.749   1.878 -14.608  1.00  0.00    +0.282 C 
ATOM      5  C   UNL     1       3.323   1.743 -15.176  1.00  0.00    +0.202 C 
ATOM      6  C   UNL     1       2.480   2.981 -14.867  1.00  0.00    +0.180 C 
ENDROOT
BRANCH   1   7
ATOM      7  O   UNL     1       2.452   5.406 -14.975  1.00  0.00    -0.341 OA
BRANCH   7   8
ATOM      8  C   UNL     1       2.597   6.480 -15.915  1.00  0.00    +0.282 C 
ATOM      9  C   UNL     1       0.634   8.666 -16.361  1.00  0.00    +0.184 C 
ATOM     10  C   UNL     1       1.399   8.413 -15.036  1.00  0.00    +0.178 C 
ATOM     11  C   UNL     1       1.111   7.737 -17.494  1.00  0.00    +0.180 C 
ATOM     12  O   UNL     1       2.647   7.734 -15.238  1.00  0.00    -0.341 OA
ATOM     13  C   UNL     1       1.477   6.360 -16.967  1.00  0.00    +0.202 C 
BRANCH   9  14
ATOM     14  O   UNL     1       0.899  10.005 -16.837  1.00  0.00    -0.341 OA
BRANCH  14  15
ATOM     15  C   UNL     1      -0.092  10.956 -16.448  1.00  0.00    +0.282 C 
ATOM     16  C   UNL     1      -2.014  11.279 -15.016  1.00  0.00    +0.178 C 
ATOM     17  C   UNL     1      -1.410  12.569 -14.438  1.00  0.00    +0.177 C 
ATOM     18  O   UNL     1      -0.996  10.388 -15.495  1.00  0.00    -0.341 OA
ATOM     19  C   UNL     1      -0.443  13.217 -15.436  1.00  0.00    +0.179 C 
ATOM     20  C   UNL     1       0.615  12.208 -15.878  1.00  0.00    +0.202 C 
BRANCH  16  21
ATOM     21  C   UNL     1      -3.091  11.516 -16.088  1.00  0.00    +0.191 C 
BRANCH  21  22
ATOM     22  O   UNL     1      -4.223  10.683 -15.846  1.00  0.00    -0.394 OA
ATOM     23  H   UNL     1      -5.009  11.272 -15.756  1.00  0.00    +0.210 HD
ENDBRANCH  21  22
ENDBRANCH  16  21
BRANCH  17  24
ATOM     24  O   UNL     1      -2.407  13.532 -14.079  1.00  0.00    -0.387 OA
ATOM     25  H   UNL     1      -3.264  13.068 -14.065  1.00  0.00    +0.211 HD
ENDBRANCH  17  24
BRANCH  19  26
ATOM     26  O   UNL     1       0.200  14.341 -14.808  1.00  0.00    -0.387 OA
ATOM     27  H   UNL     1       0.042  14.222 -13.850  1.00  0.00    +0.211 HD
ENDBRANCH  19  26
BRANCH  20  28
ATOM     28  O   UNL     1       1.437  11.894 -14.736  1.00  0.00    -0.385 OA
ATOM     29  H   UNL     1       1.966  12.701 -14.580  1.00  0.00    +0.211 HD
ENDBRANCH  20  28
ENDBRANCH  14  15
ENDBRANCH   9  14
BRANCH  10  30
ATOM     30  C   UNL     1       0.559   7.724 -13.946  1.00  0.00    +0.191 C 
BRANCH  30  31
ATOM     31  O   UNL     1      -0.772   7.462 -14.385  1.00  0.00    -0.394 OA
ATOM     32  H   UNL     1      -0.776   7.606 -15.350  1.00  0.00    +0.210 HD
ENDBRANCH  30  31
ENDBRANCH  10  30
BRANCH  11  33
ATOM     33  O   UNL     1       0.059   7.599 -18.470  1.00  0.00    -0.387 OA
ATOM     34  H   UNL     1       0.174   6.703 -18.847  1.00  0.00    +0.211 HD
ENDBRANCH  11  33
BRANCH  13  35
ATOM     35  O   UNL     1       0.280   5.754 -16.431  1.00  0.00    -0.385 OA
ATOM     36  H   UNL     1      -0.094   5.244 -17.178  1.00  0.00    +0.211 HD
ENDBRANCH  13  35
ENDBRANCH   7   8
ENDBRANCH   1   7
BRANCH   2  37
ATOM     37  C   UNL     1       4.663   4.757 -13.301  1.00  0.00    +0.191 C 
BRANCH  37  38
ATOM     38  O   UNL     1       4.727   6.180 -13.219  1.00  0.00    -0.394 OA
ATOM     39  H   UNL     1       4.810   6.506 -14.135  1.00  0.00    +0.210 HD
ENDBRANCH  37  38
ENDBRANCH   2  37
BRANCH   6  40
ATOM     40  O   UNL     1       1.204   2.853 -15.518  1.00  0.00    -0.387 OA
ATOM     41  H   UNL     1       1.328   3.161 -16.438  1.00  0.00    +0.211 HD
ENDBRANCH   6  40
BRANCH   5  42
ATOM     42  O   UNL     1       2.639   0.581 -14.685  1.00  0.00    -0.385 OA
ATOM     43  H   UNL     1       1.920   0.378 -15.314  1.00  0.00    +0.211 HD
ENDBRANCH   5  42
BRANCH   4  44
ATOM     44  O   UNL     1       4.759   1.754 -13.182  1.00  0.00    -0.341 OA
BRANCH  44  45
ATOM     45  C   UNL     1       5.683   0.758 -12.677  1.00  0.00    +0.184 C 
ATOM     46  C   UNL     1       6.494   1.263 -11.454  1.00  0.00    +0.178 C 
ATOM     47  C   UNL     1       4.820  -0.476 -12.296  1.00  0.00    +0.180 C 
ATOM     48  O   UNL     1       5.714   1.131 -10.251  1.00  0.00    -0.341 OA
ATOM     49  C   UNL     1       5.397  -1.209 -11.094  1.00  0.00    +0.202 C 
ATOM     50  C   UNL     1       5.490  -0.237  -9.888  1.00  0.00    +0.282 C 
BRANCH  46  51
ATOM     51  C   UNL     1       6.923   2.728 -11.562  1.00  0.00    +0.191 C 
BRANCH  51  52
ATOM     52  O   UNL     1       7.555   2.957 -12.822  1.00  0.00    -0.394 OA
ATOM     53  H   UNL     1       7.272   3.850 -13.098  1.00  0.00    +0.210 HD
ENDBRANCH  51  52
ENDBRANCH  46  51
BRANCH  47  54
ATOM     54  O   UNL     1       3.459  -0.101 -12.030  1.00  0.00    -0.387 OA
ATOM     55  H   UNL     1       2.938  -0.415 -12.796  1.00  0.00    +0.211 HD
ENDBRANCH  47  54
BRANCH  49  56
ATOM     56  O   UNL     1       6.685  -1.739 -11.452  1.00  0.00    -0.385 OA
ATOM     57  H   UNL     1       6.882  -2.425 -10.772  1.00  0.00    +0.211 HD
ENDBRANCH  49  56
BRANCH  50  58
ATOM     58  O   UNL     1       6.558  -0.689  -9.058  1.00  0.00    -0.341 OA
BRANCH  58  59
ATOM     59  C   UNL     1       6.222  -1.752  -8.165  1.00  0.00    +0.184 C 
ATOM     60  C   UNL     1       7.522  -2.242  -7.475  1.00  0.00    +0.178 C 
ATOM     61  C   UNL     1       5.228  -1.264  -7.105  1.00  0.00    +0.180 C 
ATOM     62  O   UNL     1       8.091  -1.213  -6.636  1.00  0.00    -0.342 OA
ATOM     63  C   UNL     1       5.890  -0.250  -6.170  1.00  0.00    +0.201 C 
ATOM     64  C   UNL     1       7.199  -0.826  -5.604  1.00  0.00    +0.279 C 
BRANCH  60  65
ATOM     65  C   UNL     1       8.611  -2.636  -8.488  1.00  0.00    +0.191 C 
BRANCH  65  66
ATOM     66  O   UNL     1       8.086  -3.463  -9.531  1.00  0.00    -0.394 OA
ATOM     67  H   UNL     1       7.445  -4.051  -9.079  1.00  0.00    +0.210 HD
ENDBRANCH  65  66
ENDBRANCH  60  65
BRANCH  61  68
ATOM     68  O   UNL     1       4.748  -2.379  -6.338  1.00  0.00    -0.387 OA
ATOM     69  H   UNL     1       4.080  -2.807  -6.916  1.00  0.00    +0.211 HD
ENDBRANCH  61  68
BRANCH  63  70
ATOM     70  O   UNL     1       4.977   0.067  -5.107  1.00  0.00    -0.385 OA
ATOM     71  H   UNL     1       5.414  -0.269  -4.297  1.00  0.00    +0.211 HD
ENDBRANCH  63  70
BRANCH  64  72
ATOM     72  O   UNL     1       7.827   0.194  -4.834  1.00  0.00    -0.366 OA
ATOM     73  H   UNL     1       7.732   1.000  -5.369  1.00  0.00    +0.213 HD
ENDBRANCH  64  72
ENDBRANCH  58  59
ENDBRANCH  50  58
ENDBRANCH  44  45
ENDBRANCH   4  44
TORSDOF 30
ENDMDL
MODEL 5
REMARK VINA RESULT:    -7.210      4.890      7.661
REMARK INTER + INTRA:         -20.358
REMARK INTER:                 -16.755
REMARK INTRA:                  -3.603
REMARK UNBOUND:                -4.086
REMARK SMILES OC[C@H]1O[C@H](O[C@H]2[C@H](O)[C@H](O)[C@H](O[C@@H]3[C@@H](O)[C@H](O)[C@H](O[C@@H]4[C@H](O)[C@@H](O)[C@@H](O[C@@H]5[C@@H](O)[C@@H](O)[C@H](O)O[C@@H]5CO)O[C@@H]4CO)O[C@@H]3CO)O[C@@H]2CO)[C@H](O)[C@H](O)[C@H]1O
REMARK SMILES IDX 14 1 44 2 43 3 19 4 17 5 15 6 13 7 12 8 7 9 48 10 8 11 47 12
REMARK SMILES IDX 10 13 6 14 5 15 3 16 55 17 4 18 53 19 51 20 2 21 1 22 56 24
REMARK SMILES IDX 54 26 52 28 49 30 50 31 9 33 11 35 45 37 46 38 16 40 18 42
REMARK SMILES IDX 20 44 21 45 40 46 22 47 39 48 24 49 26 50 41 51 42 52 23 54
REMARK SMILES IDX 25 56 27 58 28 59 36 60 29 61 35 62 31 63 33 64 37 65 38 66
REMARK SMILES IDX 30 68 32 70 34 72
REMARK H PARENT 1 23 56 25 54 27 52 29 50 32 9 34 11 36 46 39 16 41 18 43
REMARK H PARENT 42 53 23 55 25 57 38 67 30 69 32 71 34 73
ROOT
ATOM      1  C   UNL     1       6.355   2.308 -11.038  1.00  0.00    +0.184 C 
ATOM      2  C   UNL     1       7.076   3.666 -11.021  1.00  0.00    +0.178 C 
ATOM      3  O   UNL     1       7.303   4.193 -12.342  1.00  0.00    -0.341 OA
ATOM      4  C   UNL     1       7.932   3.319 -13.284  1.00  0.00    +0.282 C 
ATOM      5  C   UNL     1       7.244   1.942 -13.354  1.00  0.00    +0.202 C 
ATOM      6  C   UNL     1       7.083   1.328 -11.963  1.00  0.00    +0.180 C 
ENDROOT
BRANCH   1   7
ATOM      7  O   UNL     1       6.298   1.770  -9.708  1.00  0.00    -0.341 OA
BRANCH   7   8
ATOM      8  C   UNL     1       6.851   0.449  -9.630  1.00  0.00    +0.282 C 
ATOM      9  C   UNL     1       7.076  -1.191  -7.162  1.00  0.00    +0.184 C 
ATOM     10  C   UNL     1       5.744  -0.722  -7.800  1.00  0.00    +0.178 C 
ATOM     11  C   UNL     1       8.296  -0.835  -8.035  1.00  0.00    +0.180 C 
ATOM     12  O   UNL     1       5.858  -0.485  -9.211  1.00  0.00    -0.341 OA
ATOM     13  C   UNL     1       8.107   0.499  -8.737  1.00  0.00    +0.202 C 
BRANCH   9  14
ATOM     14  O   UNL     1       7.096  -2.632  -7.060  1.00  0.00    -0.341 OA
BRANCH  14  15
ATOM     15  C   UNL     1       7.038  -3.111  -5.716  1.00  0.00    +0.282 C 
ATOM     16  C   UNL     1       6.014  -4.777  -4.293  1.00  0.00    +0.178 C 
ATOM     17  C   UNL     1       7.387  -5.208  -3.751  1.00  0.00    +0.177 C 
ATOM     18  O   UNL     1       6.120  -4.203  -5.605  1.00  0.00    -0.341 OA
ATOM     19  C   UNL     1       8.398  -4.058  -3.842  1.00  0.00    +0.179 C 
ATOM     20  C   UNL     1       8.460  -3.521  -5.270  1.00  0.00    +0.202 C 
BRANCH  16  21
ATOM     21  C   UNL     1       5.228  -3.853  -3.347  1.00  0.00    +0.191 C 
BRANCH  21  22
ATOM     22  O   UNL     1       4.314  -4.613  -2.559  1.00  0.00    -0.394 OA
ATOM     23  H   UNL     1       4.091  -4.075  -1.764  1.00  0.00    +0.210 HD
ENDBRANCH  21  22
ENDBRANCH  16  21
BRANCH  17  24
ATOM     24  O   UNL     1       7.328  -5.656  -2.393  1.00  0.00    -0.387 OA
ATOM     25  H   UNL     1       6.412  -5.521  -2.085  1.00  0.00    +0.211 HD
ENDBRANCH  17  24
BRANCH  19  26
ATOM     26  O   UNL     1       9.697  -4.540  -3.454  1.00  0.00    -0.387 OA
ATOM     27  H   UNL     1      10.182  -3.747  -3.150  1.00  0.00    +0.211 HD
ENDBRANCH  19  26
BRANCH  20  28
ATOM     28  O   UNL     1       9.016  -4.552  -6.111  1.00  0.00    -0.385 OA
ATOM     29  H   UNL     1       9.848  -4.812  -5.670  1.00  0.00    +0.211 HD
ENDBRANCH  20  28
ENDBRANCH  14  15
ENDBRANCH   9  14
BRANCH  10  30
ATOM     30  C   UNL     1       5.090   0.474  -7.085  1.00  0.00    +0.191 C 
BRANCH  30  31
ATOM     31  O   UNL     1       5.288   0.425  -5.675  1.00  0.00    -0.394 OA
ATOM     32  H   UNL     1       4.400   0.394  -5.273  1.00  0.00    +0.210 HD
ENDBRANCH  30  31
ENDBRANCH  10  30
BRANCH  11  33
ATOM     33  O   UNL     1       9.471  -0.761  -7.202  1.00  0.00    -0.387 OA
ATOM     34  H   UNL     1      10.147  -1.299  -7.662  1.00  0.00    +0.211 HD
ENDBRANCH  11  33
BRANCH  13  35
ATOM     35  O   UNL     1       8.024   1.528  -7.727  1.00  0.00    -0.385 OA
ATOM     36  H   UNL     1       7.064   1.658  -7.586  1.00  0.00    +0.211 HD
ENDBRANCH  13  35
ENDBRANCH   7   8
ENDBRANCH   1   7
BRANCH   2  37
ATOM     37  C   UNL     1       8.359   3.680 -10.171  1.00  0.00    +0.191 C 
BRANCH  37  38
ATOM     38  O   UNL     1       8.046   4.003  -8.817  1.00  0.00    -0.394 OA
ATOM     39  H   UNL     1       8.335   3.243  -8.278  1.00  0.00    +0.210 HD
ENDBRANCH  37  38
ENDBRANCH   2  37
BRANCH   6  40
ATOM     40  O   UNL     1       6.334   0.105 -12.074  1.00  0.00    -0.387 OA
ATOM     41  H   UNL     1       5.941  -0.063 -11.194  1.00  0.00    +0.211 HD
ENDBRANCH   6  40
BRANCH   5  42
ATOM     42  O   UNL     1       7.948   1.014 -14.192  1.00  0.00    -0.385 OA
ATOM     43  H   UNL     1       8.854   0.931 -13.838  1.00  0.00    +0.211 HD
ENDBRANCH   5  42
BRANCH   4  44
ATOM     44  O   UNL     1       9.324   3.196 -12.977  1.00  0.00    -0.341 OA
BRANCH  44  45
ATOM     45  C   UNL     1      10.208   3.751 -13.983  1.00  0.00    +0.184 C 
ATOM     46  C   UNL     1      11.284   4.691 -13.376  1.00  0.00    +0.178 C 
ATOM     47  C   UNL     1      10.869   2.539 -14.692  1.00  0.00    +0.180 C 
ATOM     48  O   UNL     1      12.382   3.919 -12.856  1.00  0.00    -0.341 OA
ATOM     49  C   UNL     1      12.293   2.856 -15.126  1.00  0.00    +0.202 C 
ATOM     50  C   UNL     1      13.134   3.267 -13.888  1.00  0.00    +0.282 C 
BRANCH  46  51
ATOM     51  C   UNL     1      10.764   5.569 -12.236  1.00  0.00    +0.191 C 
BRANCH  51  52
ATOM     52  O   UNL     1       9.575   6.246 -12.649  1.00  0.00    -0.394 OA
ATOM     53  H   UNL     1       9.079   5.600 -13.186  1.00  0.00    +0.210 HD
ENDBRANCH  51  52
ENDBRANCH  46  51
BRANCH  47  54
ATOM     54  O   UNL     1      10.865   1.374 -13.851  1.00  0.00    -0.387 OA
ATOM     55  H   UNL     1       9.939   1.058 -13.831  1.00  0.00    +0.211 HD
ENDBRANCH  47  54
BRANCH  49  56
ATOM     56  O   UNL     1      12.252   3.902 -16.112  1.00  0.00    -0.385 OA
ATOM     57  H   UNL     1      12.330   4.742 -15.604  1.00  0.00    +0.211 HD
ENDBRANCH  49  56
BRANCH  50  58
ATOM     58  O   UNL     1      14.167   4.137 -14.344  1.00  0.00    -0.341 OA
BRANCH  58  59
ATOM     59  C   UNL     1      15.482   3.802 -13.897  1.00  0.00    +0.184 C 
ATOM     60  C   UNL     1      16.487   4.151 -15.025  1.00  0.00    +0.178 C 
ATOM     61  C   UNL     1      15.833   4.592 -12.631  1.00  0.00    +0.180 C 
ATOM     62  O   UNL     1      16.526   5.573 -15.273  1.00  0.00    -0.342 OA
ATOM     63  C   UNL     1      15.965   6.083 -12.946  1.00  0.00    +0.201 C 
ATOM     64  C   UNL     1      16.934   6.294 -14.121  1.00  0.00    +0.279 C 
BRANCH  60  65
ATOM     65  C   UNL     1      16.124   3.482 -16.362  1.00  0.00    +0.191 C 
BRANCH  65  66
ATOM     66  O   UNL     1      15.090   4.196 -17.046  1.00  0.00    -0.394 OA
ATOM     67  H   UNL     1      15.397   5.127 -17.051  1.00  0.00    +0.210 HD
ENDBRANCH  65  66
ENDBRANCH  60  65
BRANCH  61  68
ATOM     68  O   UNL     1      17.067   4.108 -12.082  1.00  0.00    -0.387 OA
ATOM     69  H   UNL     1      16.941   3.138 -12.008  1.00  0.00    +0.211 HD
ENDBRANCH  61  68
BRANCH  63  70
ATOM     70  O   UNL     1      16.439   6.766 -11.774  1.00  0.00    -0.385 OA
ATOM     71  H   UNL     1      16.812   7.607 -12.110  1.00  0.00    +0.211 HD
ENDBRANCH  63  70
BRANCH  64  72
ATOM     72  O   UNL     1      16.936   7.681 -14.443  1.00  0.00    -0.366 OA
ATOM     73  H   UNL     1      16.743   7.713 -15.396  1.00  0.00    +0.213 HD
ENDBRANCH  64  72
ENDBRANCH  58  59
ENDBRANCH  50  58
ENDBRANCH  44  45
ENDBRANCH   4  44
TORSDOF 30
ENDMDL
MODEL 6
REMARK VINA RESULT:    -7.182      6.687     18.306
REMARK INTER + INTRA:         -20.296
REMARK INTER:                 -18.665
REMARK INTRA:                  -1.631
REMARK UNBOUND:                -4.086
REMARK SMILES OC[C@H]1O[C@H](O[C@H]2[C@H](O)[C@H](O)[C@H](O[C@@H]3[C@@H](O)[C@H](O)[C@H](O[C@@H]4[C@H](O)[C@@H](O)[C@@H](O[C@@H]5[C@@H](O)[C@@H](O)[C@H](O)O[C@@H]5CO)O[C@@H]4CO)O[C@@H]3CO)O[C@@H]2CO)[C@H](O)[C@H](O)[C@H]1O
REMARK SMILES IDX 14 1 44 2 43 3 19 4 17 5 15 6 13 7 12 8 7 9 48 10 8 11 47 12
REMARK SMILES IDX 10 13 6 14 5 15 3 16 55 17 4 18 53 19 51 20 2 21 1 22 56 24
REMARK SMILES IDX 54 26 52 28 49 30 50 31 9 33 11 35 45 37 46 38 16 40 18 42
REMARK SMILES IDX 20 44 21 45 40 46 22 47 39 48 24 49 26 50 41 51 42 52 23 54
REMARK SMILES IDX 25 56 27 58 28 59 36 60 29 61 35 62 31 63 33 64 37 65 38 66
REMARK SMILES IDX 30 68 32 70 34 72
REMARK H PARENT 1 23 56 25 54 27 52 29 50 32 9 34 11 36 46 39 16 41 18 43
REMARK H PARENT 42 53 23 55 25 57 38 67 30 69 32 71 34 73
ROOT
ATOM      1  C   UNL     1       7.935  -4.895  -4.959  1.00  0.00    +0.184 C 
ATOM      2  C   UNL     1       7.384  -6.114  -5.718  1.00  0.00    +0.178 C 
ATOM      3  O   UNL     1       7.208  -7.265  -4.870  1.00  0.00    -0.341 OA
ATOM      4  C   UNL     1       8.328  -7.654  -4.070  1.00  0.00    +0.282 C 
ATOM      5  C   UNL     1       8.917  -6.472  -3.276  1.00  0.00    +0.202 C 
ATOM      6  C   UNL     1       9.199  -5.275  -4.183  1.00  0.00    +0.180 C 
ENDROOT
BRANCH   1   7
ATOM      7  O   UNL     1       8.231  -3.838  -5.885  1.00  0.00    -0.341 OA
BRANCH   7   8
ATOM      8  C   UNL     1       7.050  -3.302  -6.496  1.00  0.00    +0.282 C 
ATOM      9  C   UNL     1       6.862  -0.691  -7.903  1.00  0.00    +0.184 C 
ATOM     10  C   UNL     1       7.744  -1.883  -8.354  1.00  0.00    +0.178 C 
ATOM     11  C   UNL     1       5.962  -1.054  -6.706  1.00  0.00    +0.180 C 
ATOM     12  O   UNL     1       7.240  -3.148  -7.901  1.00  0.00    -0.341 OA
ATOM     13  C   UNL     1       6.661  -2.008  -5.753  1.00  0.00    +0.202 C 
BRANCH   9  14
ATOM     14  O   UNL     1       5.948  -0.324  -8.961  1.00  0.00    -0.341 OA
BRANCH  14  15
ATOM     15  C   UNL     1       6.419   0.750  -9.776  1.00  0.00    +0.282 C 
ATOM     16  C   UNL     1       5.915   2.054 -11.749  1.00  0.00    +0.178 C 
ATOM     17  C   UNL     1       6.085   3.367 -10.968  1.00  0.00    +0.177 C 
ATOM     18  O   UNL     1       5.543   0.969 -10.886  1.00  0.00    -0.341 OA
ATOM     19  C   UNL     1       7.029   3.177  -9.774  1.00  0.00    +0.179 C 
ATOM     20  C   UNL     1       6.551   2.018  -8.901  1.00  0.00    +0.202 C 
BRANCH  16  21
ATOM     21  C   UNL     1       7.128   1.678 -12.616  1.00  0.00    +0.191 C 
BRANCH  21  22
ATOM     22  O   UNL     1       7.206   2.533 -13.756  1.00  0.00    -0.394 OA
ATOM     23  H   UNL     1       7.924   2.187 -14.337  1.00  0.00    +0.210 HD
ENDBRANCH  21  22
ENDBRANCH  16  21
BRANCH  17  24
ATOM     24  O   UNL     1       6.588   4.432 -11.781  1.00  0.00    -0.387 OA
ATOM     25  H   UNL     1       6.264   5.267 -11.395  1.00  0.00    +0.211 HD
ENDBRANCH  17  24
BRANCH  19  26
ATOM     26  O   UNL     1       7.055   4.385  -8.995  1.00  0.00    -0.387 OA
ATOM     27  H   UNL     1       7.683   4.206  -8.267  1.00  0.00    +0.211 HD
ENDBRANCH  19  26
BRANCH  20  28
ATOM     28  O   UNL     1       5.294   2.398  -8.305  1.00  0.00    -0.385 OA
ATOM     29  H   UNL     1       4.780   1.568  -8.256  1.00  0.00    +0.211 HD
ENDBRANCH  20  28
ENDBRANCH  14  15
ENDBRANCH   9  14
BRANCH  10  30
ATOM     30  C   UNL     1       9.237  -1.725  -8.015  1.00  0.00    +0.191 C 
BRANCH  30  31
ATOM     31  O   UNL     1       9.506  -0.490  -7.357  1.00  0.00    -0.394 OA
ATOM     32  H   UNL     1      10.379  -0.588  -6.932  1.00  0.00    +0.210 HD
ENDBRANCH  30  31
ENDBRANCH  10  30
BRANCH  11  33
ATOM     33  O   UNL     1       5.615   0.148  -5.990  1.00  0.00    -0.387 OA
ATOM     34  H   UNL     1       4.637   0.147  -5.944  1.00  0.00    +0.211 HD
ENDBRANCH  11  33
BRANCH  13  35
ATOM     35  O   UNL     1       7.808  -1.326  -5.199  1.00  0.00    -0.385 OA
ATOM     36  H   UNL     1       8.159  -1.942  -4.524  1.00  0.00    +0.211 HD
ENDBRANCH  13  35
ENDBRANCH   7   8
ENDBRANCH   1   7
BRANCH   2  37
ATOM     37  C   UNL     1       8.170  -6.460  -6.995  1.00  0.00    +0.191 C 
BRANCH  37  38
ATOM     38  O   UNL     1       7.911  -7.809  -7.380  1.00  0.00    -0.394 OA
ATOM     39  H   UNL     1       7.580  -8.265  -6.584  1.00  0.00    +0.210 HD
ENDBRANCH  37  38
ENDBRANCH   2  37
BRANCH   6  40
ATOM     40  O   UNL     1       9.634  -4.167  -3.376  1.00  0.00    -0.387 OA
ATOM     41  H   UNL     1       9.792  -4.521  -2.477  1.00  0.00    +0.211 HD
ENDBRANCH   6  40
BRANCH   5  42
ATOM     42  O   UNL     1      10.123  -6.821  -2.579  1.00  0.00    -0.385 OA
ATOM     43  H   UNL     1      10.197  -7.794  -2.594  1.00  0.00    +0.211 HD
ENDBRANCH   5  42
BRANCH   4  44
ATOM     44  O   UNL     1       9.318  -8.278  -4.894  1.00  0.00    -0.341 OA
BRANCH  44  45
ATOM     45  C   UNL     1       9.907  -9.471  -4.318  1.00  0.00    +0.184 C 
ATOM     46  C   UNL     1       8.853 -10.384  -3.634  1.00  0.00    +0.178 C 
ATOM     47  C   UNL     1      10.606 -10.214  -5.488  1.00  0.00    +0.180 C 
ATOM     48  O   UNL     1       8.191 -11.201  -4.618  1.00  0.00    -0.341 OA
ATOM     49  C   UNL     1      10.546 -11.724  -5.304  1.00  0.00    +0.202 C 
ATOM     50  C   UNL     1       9.065 -12.176  -5.202  1.00  0.00    +0.282 C 
BRANCH  46  51
ATOM     51  C   UNL     1       7.771  -9.615  -2.876  1.00  0.00    +0.191 C 
BRANCH  51  52
ATOM     52  O   UNL     1       7.380 -10.346  -1.712  1.00  0.00    -0.394 OA
ATOM     53  H   UNL     1       8.208 -10.704  -1.338  1.00  0.00    +0.210 HD
ENDBRANCH  51  52
ENDBRANCH  46  51
BRANCH  47  54
ATOM     54  O   UNL     1      10.032  -9.855  -6.754  1.00  0.00    -0.387 OA
ATOM     55  H   UNL     1      10.740  -9.982  -7.418  1.00  0.00    +0.211 HD
ENDBRANCH  47  54
BRANCH  49  56
ATOM     56  O   UNL     1      11.293 -12.075  -4.126  1.00  0.00    -0.385 OA
ATOM     57  H   UNL     1      10.615 -12.314  -3.451  1.00  0.00    +0.211 HD
ENDBRANCH  49  56
BRANCH  50  58
ATOM     58  O   UNL     1       9.036 -13.368  -4.421  1.00  0.00    -0.341 OA
BRANCH  58  59
ATOM     59  C   UNL     1       7.796 -14.076  -4.442  1.00  0.00    +0.184 C 
ATOM     60  C   UNL     1       8.070 -15.558  -4.076  1.00  0.00    +0.178 C 
ATOM     61  C   UNL     1       6.817 -13.468  -3.431  1.00  0.00    +0.180 C 
ATOM     62  O   UNL     1       8.551 -15.683  -2.720  1.00  0.00    -0.342 OA
ATOM     63  C   UNL     1       7.303 -13.705  -2.000  1.00  0.00    +0.201 C 
ATOM     64  C   UNL     1       7.604 -15.197  -1.782  1.00  0.00    +0.279 C 
BRANCH  60  65
ATOM     65  C   UNL     1       9.137 -16.198  -4.981  1.00  0.00    +0.191 C 
BRANCH  65  66
ATOM     66  O   UNL     1       9.157 -15.596  -6.280  1.00  0.00    -0.394 OA
ATOM     67  H   UNL     1       9.040 -14.639  -6.108  1.00  0.00    +0.210 HD
ENDBRANCH  65  66
ENDBRANCH  60  65
BRANCH  61  68
ATOM     68  O   UNL     1       5.518 -14.055  -3.598  1.00  0.00    -0.387 OA
ATOM     69  H   UNL     1       5.085 -13.505  -4.286  1.00  0.00    +0.211 HD
ENDBRANCH  61  68
BRANCH  63  70
ATOM     70  O   UNL     1       6.291 -13.256  -1.085  1.00  0.00    -0.385 OA
ATOM     71  H   UNL     1       5.731 -14.044  -0.928  1.00  0.00    +0.211 HD
ENDBRANCH  63  70
BRANCH  64  72
ATOM     72  O   UNL     1       8.155 -15.345  -0.478  1.00  0.00    -0.366 OA
ATOM     73  H   UNL     1       7.385 -15.368   0.114  1.00  0.00    +0.213 HD
ENDBRANCH  64  72
ENDBRANCH  58  59
ENDBRANCH  50  58
ENDBRANCH  44  45
ENDBRANCH   4  44
TORSDOF 30
ENDMDL
MODEL 7
REMARK VINA RESULT:    -7.014      1.923     13.210
REMARK INTER + INTRA:         -19.916
REMARK INTER:                 -17.025
REMARK INTRA:                  -2.890
REMARK UNBOUND:                -4.086
REMARK SMILES OC[C@H]1O[C@H](O[C@H]2[C@H](O)[C@H](O)[C@H](O[C@@H]3[C@@H](O)[C@H](O)[C@H](O[C@@H]4[C@H](O)[C@@H](O)[C@@H](O[C@@H]5[C@@H](O)[C@@H](O)[C@H](O)O[C@@H]5CO)O[C@@H]4CO)O[C@@H]3CO)O[C@@H]2CO)[C@H](O)[C@H](O)[C@H]1O
REMARK SMILES IDX 14 1 44 2 43 3 19 4 17 5 15 6 13 7 12 8 7 9 48 10 8 11 47 12
REMARK SMILES IDX 10 13 6 14 5 15 3 16 55 17 4 18 53 19 51 20 2 21 1 22 56 24
REMARK SMILES IDX 54 26 52 28 49 30 50 31 9 33 11 35 45 37 46 38 16 40 18 42
REMARK SMILES IDX 20 44 21 45 40 46 22 47 39 48 24 49 26 50 41 51 42 52 23 54
REMARK SMILES IDX 25 56 27 58 28 59 36 60 29 61 35 62 31 63 33 64 37 65 38 66
REMARK SMILES IDX 30 68 32 70 34 72
REMARK H PARENT 1 23 56 25 54 27 52 29 50 32 9 34 11 36 46 39 16 41 18 43
REMARK H PARENT 42 53 23 55 25 57 38 67 30 69 32 71 34 73
ROOT
ATOM      1  C   UNL     1       7.975   3.913 -12.153  1.00  0.00    +0.184 C 
ATOM      2  C   UNL     1       6.728   3.695 -11.280  1.00  0.00    +0.178 C 
ATOM      3  O   UNL     1       7.029   3.691  -9.871  1.00  0.00    -0.341 OA
ATOM      4  C   UNL     1       8.084   2.828  -9.440  1.00  0.00    +0.282 C 
ATOM      5  C   UNL     1       9.367   3.010 -10.274  1.00  0.00    +0.202 C 
ATOM      6  C   UNL     1       9.076   2.919 -11.772  1.00  0.00    +0.180 C 
ENDROOT
BRANCH   1   7
ATOM      7  O   UNL     1       7.633   3.751 -13.539  1.00  0.00    -0.341 OA
BRANCH   7   8
ATOM      8  C   UNL     1       8.223   4.762 -14.367  1.00  0.00    +0.282 C 
ATOM      9  C   UNL     1       6.805   6.346 -16.444  1.00  0.00    +0.184 C 
ATOM     10  C   UNL     1       6.490   6.383 -14.926  1.00  0.00    +0.178 C 
ATOM     11  C   UNL     1       8.051   5.494 -16.758  1.00  0.00    +0.180 C 
ATOM     12  O   UNL     1       7.621   6.029 -14.117  1.00  0.00    -0.341 OA
ATOM     13  C   UNL     1       8.151   4.293 -15.834  1.00  0.00    +0.202 C 
BRANCH   9  14
ATOM     14  O   UNL     1       7.129   7.673 -16.914  1.00  0.00    -0.341 OA
BRANCH  14  15
ATOM     15  C   UNL     1       7.106   8.665 -15.887  1.00  0.00    +0.282 C 
ATOM     16  C   UNL     1       8.467  10.302 -14.740  1.00  0.00    +0.178 C 
ATOM     17  C   UNL     1       7.422  11.400 -14.993  1.00  0.00    +0.177 C 
ATOM     18  O   UNL     1       8.396   9.265 -15.731  1.00  0.00    -0.341 OA
ATOM     19  C   UNL     1       6.021  10.797 -15.155  1.00  0.00    +0.179 C 
ATOM     20  C   UNL     1       6.031   9.720 -16.237  1.00  0.00    +0.202 C 
BRANCH  16  21
ATOM     21  C   UNL     1       8.427   9.712 -13.320  1.00  0.00    +0.191 C 
BRANCH  21  22
ATOM     22  O   UNL     1       9.172   8.497 -13.267  1.00  0.00    -0.394 OA
ATOM     23  H   UNL     1       8.607   7.786 -13.649  1.00  0.00    +0.210 HD
ENDBRANCH  21  22
ENDBRANCH  16  21
BRANCH  17  24
ATOM     24  O   UNL     1       7.380  12.374 -13.945  1.00  0.00    -0.387 OA
ATOM     25  H   UNL     1       6.686  13.018 -14.178  1.00  0.00    +0.211 HD
ENDBRANCH  17  24
BRANCH  19  26
ATOM     26  O   UNL     1       5.099  11.838 -15.523  1.00  0.00    -0.387 OA
ATOM     27  H   UNL     1       5.612  12.442 -16.096  1.00  0.00    +0.211 HD
ENDBRANCH  19  26
BRANCH  20  28
ATOM     28  O   UNL     1       6.292  10.360 -17.502  1.00  0.00    -0.385 OA
ATOM     29  H   UNL     1       6.362   9.626 -18.144  1.00  0.00    +0.211 HD
ENDBRANCH  20  28
ENDBRANCH  14  15
ENDBRANCH   9  14
BRANCH  10  30
ATOM     30  C   UNL     1       5.242   5.577 -14.523  1.00  0.00    +0.191 C 
BRANCH  30  31
ATOM     31  O   UNL     1       4.805   5.898 -13.205  1.00  0.00    -0.394 OA
ATOM     32  H   UNL     1       4.757   5.053 -12.718  1.00  0.00    +0.210 HD
ENDBRANCH  30  31
ENDBRANCH  10  30
BRANCH  11  33
ATOM     33  O   UNL     1       7.978   5.030 -18.121  1.00  0.00    -0.387 OA
ATOM     34  H   UNL     1       7.497   4.179 -18.077  1.00  0.00    +0.211 HD
ENDBRANCH  11  33
BRANCH  13  35
ATOM     35  O   UNL     1       7.012   3.441 -16.084  1.00  0.00    -0.385 OA
ATOM     36  H   UNL     1       7.273   2.567 -15.726  1.00  0.00    +0.211 HD
ENDBRANCH  13  35
ENDBRANCH   7   8
ENDBRANCH   1   7
BRANCH   2  37
ATOM     37  C   UNL     1       5.887   2.472 -11.688  1.00  0.00    +0.191 C 
BRANCH  37  38
ATOM     38  O   UNL     1       4.806   2.877 -12.526  1.00  0.00    -0.394 OA
ATOM     39  H   UNL     1       4.308   2.069 -12.745  1.00  0.00    +0.210 HD
ENDBRANCH  37  38
ENDBRANCH   2  37
BRANCH   6  40
ATOM     40  O   UNL     1      10.279   3.212 -12.502  1.00  0.00    -0.387 OA
ATOM     41  H   UNL     1      10.463   2.432 -13.064  1.00  0.00    +0.211 HD
ENDBRANCH   6  40
BRANCH   5  42
ATOM     42  O   UNL     1      10.384   2.054  -9.940  1.00  0.00    -0.385 OA
ATOM     43  H   UNL     1      11.200   2.323 -10.403  1.00  0.00    +0.211 HD
ENDBRANCH   5  42
BRANCH   4  44
ATOM     44  O   UNL     1       7.635   1.469  -9.456  1.00  0.00    -0.341 OA
BRANCH  44  45
ATOM     45  C   UNL     1       7.010   1.032  -8.224  1.00  0.00    +0.184 C 
ATOM     46  C   UNL     1       6.107  -0.214  -8.423  1.00  0.00    +0.178 C 
ATOM     47  C   UNL     1       8.170   0.722  -7.239  1.00  0.00    +0.180 C 
ATOM     48  O   UNL     1       6.905  -1.412  -8.427  1.00  0.00    -0.341 OA
ATOM     49  C   UNL     1       7.817  -0.429  -6.308  1.00  0.00    +0.202 C 
ATOM     50  C   UNL     1       7.484  -1.692  -7.147  1.00  0.00    +0.282 C 
BRANCH  46  51
ATOM     51  C   UNL     1       5.308  -0.193  -9.727  1.00  0.00    +0.191 C 
BRANCH  51  52
ATOM     52  O   UNL     1       4.050   0.451  -9.517  1.00  0.00    -0.394 OA
ATOM     53  H   UNL     1       3.401  -0.270  -9.411  1.00  0.00    +0.210 HD
ENDBRANCH  51  52
ENDBRANCH  46  51
BRANCH  47  54
ATOM     54  O   UNL     1       9.388   0.424  -7.941  1.00  0.00    -0.387 OA
ATOM     55  H   UNL     1       9.282  -0.483  -8.294  1.00  0.00    +0.211 HD
ENDBRANCH  47  54
BRANCH  49  56
ATOM     56  O   UNL     1       6.710  -0.031  -5.482  1.00  0.00    -0.385 OA
ATOM     57  H   UNL     1       6.323   0.758  -5.928  1.00  0.00    +0.211 HD
ENDBRANCH  49  56
BRANCH  50  58
ATOM     58  O   UNL     1       6.580  -2.486  -6.381  1.00  0.00    -0.341 OA
BRANCH  58  59
ATOM     59  C   UNL     1       6.972  -2.713  -5.027  1.00  0.00    +0.184 C 
ATOM     60  C   UNL     1       5.865  -3.544  -4.328  1.00  0.00    +0.178 C 
ATOM     61  C   UNL     1       8.300  -3.478  -4.976  1.00  0.00    +0.180 C 
ATOM     62  O   UNL     1       5.750  -4.860  -4.911  1.00  0.00    -0.342 OA
ATOM     63  C   UNL     1       8.122  -4.901  -5.508  1.00  0.00    +0.201 C 
ATOM     64  C   UNL     1       6.956  -5.596  -4.785  1.00  0.00    +0.279 C 
BRANCH  60  65
ATOM     65  C   UNL     1       4.478  -2.888  -4.445  1.00  0.00    +0.191 C 
BRANCH  65  66
ATOM     66  O   UNL     1       4.578  -1.481  -4.683  1.00  0.00    -0.394 OA
ATOM     67  H   UNL     1       5.414  -1.217  -4.245  1.00  0.00    +0.210 HD
ENDBRANCH  65  66
ENDBRANCH  60  65
BRANCH  61  68
ATOM     68  O   UNL     1       8.782  -3.528  -3.625  1.00  0.00    -0.387 OA
ATOM     69  H   UNL     1       8.031  -3.203  -3.083  1.00  0.00    +0.211 HD
ENDBRANCH  61  68
BRANCH  63  70
ATOM     70  O   UNL     1       9.345  -5.628  -5.306  1.00  0.00    -0.385 OA
ATOM     71  H   UNL     1       9.124  -6.302  -4.630  1.00  0.00    +0.211 HD
ENDBRANCH  63  70
BRANCH  64  72
ATOM     72  O   UNL     1       6.764  -6.870  -5.392  1.00  0.00    -0.366 OA
ATOM     73  H   UNL     1       7.307  -6.843  -6.198  1.00  0.00    +0.213 HD
ENDBRANCH  64  72
ENDBRANCH  58  59
ENDBRANCH  50  58
ENDBRANCH  44  45
ENDBRANCH   4  44
TORSDOF 30
ENDMDL
MODEL 8
REMARK VINA RESULT:    -6.920      2.531      5.592
REMARK INTER + INTRA:         -19.704
REMARK INTER:                 -15.837
REMARK INTRA:                  -3.866
REMARK UNBOUND:                -4.086
REMARK SMILES OC[C@H]1O[C@H](O[C@H]2[C@H](O)[C@H](O)[C@H](O[C@@H]3[C@@H](O)[C@H](O)[C@H](O[C@@H]4[C@H](O)[C@@H](O)[C@@H](O[C@@H]5[C@@H](O)[C@@H](O)[C@H](O)O[C@@H]5CO)O[C@@H]4CO)O[C@@H]3CO)O[C@@H]2CO)[C@H](O)[C@H](O)[C@H]1O
REMARK SMILES IDX 14 1 44 2 43 3 19 4 17 5 15 6 13 7 12 8 7 9 48 10 8 11 47 12
REMARK SMILES IDX 10 13 6 14 5 15 3 16 55 17 4 18 53 19 51 20 2 21 1 22 56 24
REMARK SMILES IDX 54 26 52 28 49 30 50 31 9 33 11 35 45 37 46 38 16 40 18 42
REMARK SMILES IDX 20 44 21 45 40 46 22 47 39 48 24 49 26 50 41 51 42 52 23 54
REMARK SMILES IDX 25 56 27 58 28 59 36 60 29 61 35 62 31 63 33 64 37 65 38 66
REMARK SMILES IDX 30 68 32 70 34 72
REMARK H PARENT 1 23 56 25 54 27 52 29 50 32 9 34 11 36 46 39 16 41 18 43
REMARK H PARENT 42 53 23 55 25 57 38 67 30 69 32 71 34 73
ROOT
ATOM      1  C   UNL     1       6.877  -0.845 -10.468  1.00  0.00    +0.184 C 
ATOM      2  C   UNL     1       6.460   0.509  -9.872  1.00  0.00    +0.178 C 
ATOM      3  O   UNL     1       5.437   1.167 -10.644  1.00  0.00    -0.341 OA
ATOM      4  C   UNL     1       5.678   1.306 -12.046  1.00  0.00    +0.282 C 
ATOM      5  C   UNL     1       6.090  -0.026 -12.703  1.00  0.00    +0.202 C 
ATOM      6  C   UNL     1       7.242  -0.689 -11.948  1.00  0.00    +0.180 C 
ENDROOT
BRANCH   1   7
ATOM      7  O   UNL     1       7.999  -1.372  -9.744  1.00  0.00    -0.341 OA
BRANCH   7   8
ATOM      8  C   UNL     1       7.751  -2.691  -9.238  1.00  0.00    +0.282 C 
ATOM      9  C   UNL     1       9.787  -4.500  -8.047  1.00  0.00    +0.184 C 
ATOM     10  C   UNL     1       9.362  -3.129  -7.461  1.00  0.00    +0.178 C 
ATOM     11  C   UNL     1       8.925  -4.905  -9.259  1.00  0.00    +0.180 C 
ATOM     12  O   UNL     1       8.031  -2.751  -7.841  1.00  0.00    -0.341 OA
ATOM     13  C   UNL     1       8.540  -3.698 -10.097  1.00  0.00    +0.202 C 
BRANCH   9  14
ATOM     14  O   UNL     1       9.575  -5.543  -7.070  1.00  0.00    -0.341 OA
BRANCH  14  15
ATOM     15  C   UNL     1       8.825  -5.116  -5.932  1.00  0.00    +0.282 C 
ATOM     16  C   UNL     1       6.595  -5.029  -5.000  1.00  0.00    +0.178 C 
ATOM     17  C   UNL     1       7.080  -5.670  -3.690  1.00  0.00    +0.177 C 
ATOM     18  O   UNL     1       7.432  -5.394  -6.108  1.00  0.00    -0.341 OA
ATOM     19  C   UNL     1       8.569  -5.384  -3.458  1.00  0.00    +0.179 C 
ATOM     20  C   UNL     1       9.386  -5.817  -4.673  1.00  0.00    +0.202 C 
BRANCH  16  21
ATOM     21  C   UNL     1       6.412  -3.504  -4.924  1.00  0.00    +0.191 C 
BRANCH  21  22
ATOM     22  O   UNL     1       5.322  -3.178  -4.063  1.00  0.00    -0.394 OA
ATOM     23  H   UNL     1       5.702  -2.872  -3.207  1.00  0.00    +0.210 HD
ENDBRANCH  21  22
ENDBRANCH  16  21
BRANCH  17  24
ATOM     24  O   UNL     1       6.347  -5.214  -2.548  1.00  0.00    -0.387 OA
ATOM     25  H   UNL     1       5.648  -4.616  -2.875  1.00  0.00    +0.211 HD
ENDBRANCH  17  24
BRANCH  19  26
ATOM     26  O   UNL     1       9.014  -6.109  -2.298  1.00  0.00    -0.387 OA
ATOM     27  H   UNL     1       9.971  -6.254  -2.440  1.00  0.00    +0.211 HD
ENDBRANCH  19  26
BRANCH  20  28
ATOM     28  O   UNL     1       9.309  -7.253  -4.774  1.00  0.00    -0.385 OA
ATOM     29  H   UNL     1       8.948  -7.545  -3.913  1.00  0.00    +0.211 HD
ENDBRANCH  20  28
ENDBRANCH  14  15
ENDBRANCH   9  14
BRANCH  10  30
ATOM     30  C   UNL     1      10.363  -1.991  -7.732  1.00  0.00    +0.191 C 
BRANCH  30  31
ATOM     31  O   UNL     1       9.830  -0.718  -7.378  1.00  0.00    -0.394 OA
ATOM     32  H   UNL     1       9.968  -0.619  -6.417  1.00  0.00    +0.210 HD
ENDBRANCH  30  31
ENDBRANCH  10  30
BRANCH  11  33
ATOM     33  O   UNL     1       9.666  -5.828 -10.082  1.00  0.00    -0.387 OA
ATOM     34  H   UNL     1      10.286  -5.273 -10.597  1.00  0.00    +0.211 HD
ENDBRANCH  11  33
BRANCH  13  35
ATOM     35  O   UNL     1       9.751  -3.128 -10.641  1.00  0.00    -0.385 OA
ATOM     36  H   UNL     1       9.518  -2.885 -11.561  1.00  0.00    +0.211 HD
ENDBRANCH  13  35
ENDBRANCH   7   8
ENDBRANCH   1   7
BRANCH   2  37
ATOM     37  C   UNL     1       7.642   1.448  -9.571  1.00  0.00    +0.191 C 
BRANCH  37  38
ATOM     38  O   UNL     1       8.009   1.350  -8.195  1.00  0.00    -0.394 OA
ATOM     39  H   UNL     1       7.379   0.728  -7.785  1.00  0.00    +0.210 HD
ENDBRANCH  37  38
ENDBRANCH   2  37
BRANCH   6  40
ATOM     40  O   UNL     1       7.506  -1.977 -12.530  1.00  0.00    -0.387 OA
ATOM     41  H   UNL     1       7.768  -1.815 -13.459  1.00  0.00    +0.211 HD
ENDBRANCH   6  40
BRANCH   5  42
ATOM     42  O   UNL     1       6.467   0.129 -14.080  1.00  0.00    -0.385 OA
ATOM     43  H   UNL     1       6.652   1.077 -14.225  1.00  0.00    +0.211 HD
ENDBRANCH   5  42
BRANCH   4  44
ATOM     44  O   UNL     1       6.656   2.326 -12.272  1.00  0.00    -0.341 OA
BRANCH  44  45
ATOM     45  C   UNL     1       6.123   3.675 -12.263  1.00  0.00    +0.184 C 
ATOM     46  C   UNL     1       7.236   4.755 -12.308  1.00  0.00    +0.178 C 
ATOM     47  C   UNL     1       5.199   3.780 -13.507  1.00  0.00    +0.180 C 
ATOM     48  O   UNL     1       7.681   4.954 -13.663  1.00  0.00    -0.341 OA
ATOM     49  C   UNL     1       5.222   5.182 -14.100  1.00  0.00    +0.202 C 
ATOM     50  C   UNL     1       6.677   5.556 -14.489  1.00  0.00    +0.282 C 
BRANCH  46  51
ATOM     51  C   UNL     1       8.467   4.407 -11.469  1.00  0.00    +0.191 C 
BRANCH  51  52
ATOM     52  O   UNL     1       9.295   3.485 -12.180  1.00  0.00    -0.394 OA
ATOM     53  H   UNL     1      10.203   3.655 -11.867  1.00  0.00    +0.210 HD
ENDBRANCH  51  52
ENDBRANCH  46  51
BRANCH  47  54
ATOM     54  O   UNL     1       5.561   2.820 -14.512  1.00  0.00    -0.387 OA
ATOM     55  H   UNL     1       4.874   2.882 -15.205  1.00  0.00    +0.211 HD
ENDBRANCH  47  54
BRANCH  49  56
ATOM     56  O   UNL     1       4.675   6.099 -13.137  1.00  0.00    -0.385 OA
ATOM     57  H   UNL     1       5.304   6.085 -12.378  1.00  0.00    +0.211 HD
ENDBRANCH  49  56
BRANCH  50  58
ATOM     58  O   UNL     1       6.787   6.976 -14.412  1.00  0.00    -0.341 OA
BRANCH  58  59
ATOM     59  C   UNL     1       7.335   7.605 -15.571  1.00  0.00    +0.184 C 
ATOM     60  C   UNL     1       6.336   8.686 -16.060  1.00  0.00    +0.178 C 
ATOM     61  C   UNL     1       8.681   8.258 -15.237  1.00  0.00    +0.180 C 
ATOM     62  O   UNL     1       6.194   9.746 -15.089  1.00  0.00    -0.342 OA
ATOM     63  C   UNL     1       8.485   9.441 -14.286  1.00  0.00    +0.201 C 
ATOM     64  C   UNL     1       7.427  10.405 -14.848  1.00  0.00    +0.279 C 
BRANCH  60  65
ATOM     65  C   UNL     1       4.927   8.118 -16.300  1.00  0.00    +0.191 C 
BRANCH  65  66
ATOM     66  O   UNL     1       4.099   8.254 -15.142  1.00  0.00    -0.394 OA
ATOM     67  H   UNL     1       4.028   9.221 -15.003  1.00  0.00    +0.210 HD
ENDBRANCH  65  66
ENDBRANCH  60  65
BRANCH  61  68
ATOM     68  O   UNL     1       9.312   8.714 -16.443  1.00  0.00    -0.387 OA
ATOM     69  H   UNL     1      10.273   8.620 -16.270  1.00  0.00    +0.211 HD
ENDBRANCH  61  68
BRANCH  63  70
ATOM     70  O   UNL     1       9.743  10.115 -14.118  1.00  0.00    -0.385 OA
ATOM     71  H   UNL     1      10.401   9.394 -14.035  1.00  0.00    +0.211 HD
ENDBRANCH  63  70
BRANCH  64  72
ATOM     72  O   UNL     1       7.204  11.422 -13.878  1.00  0.00    -0.366 OA
ATOM     73  H   UNL     1       7.752  11.162 -13.118  1.00  0.00    +0.213 HD
ENDBRANCH  64  72
ENDBRANCH  58  59
ENDBRANCH  50  58
ENDBRANCH  44  45
ENDBRANCH   4  44
TORSDOF 30
ENDMDL
MODEL 9
REMARK VINA RESULT:    -6.870      6.068      9.898
REMARK INTER + INTRA:         -19.590
REMARK INTER:                 -15.212
REMARK INTRA:                  -4.378
REMARK UNBOUND:                -4.086
REMARK SMILES OC[C@H]1O[C@H](O[C@H]2[C@H](O)[C@H](O)[C@H](O[C@@H]3[C@@H](O)[C@H](O)[C@H](O[C@@H]4[C@H](O)[C@@H](O)[C@@H](O[C@@H]5[C@@H](O)[C@@H](O)[C@H](O)O[C@@H]5CO)O[C@@H]4CO)O[C@@H]3CO)O[C@@H]2CO)[C@H](O)[C@H](O)[C@H]1O
REMARK SMILES IDX 14 1 44 2 43 3 19 4 17 5 15 6 13 7 12 8 7 9 48 10 8 11 47 12
REMARK SMILES IDX 10 13 6 14 5 15 3 16 55 17 4 18 53 19 51 20 2 21 1 22 56 24
REMARK SMILES IDX 54 26 52 28 49 30 50 31 9 33 11 35 45 37 46 38 16 40 18 42
REMARK SMILES IDX 20 44 21 45 40 46 22 47 39 48 24 49 26 50 41 51 42 52 23 54
REMARK SMILES IDX 25 56 27 58 28 59 36 60 29 61 35 62 31 63 33 64 37 65 38 66
REMARK SMILES IDX 30 68 32 70 34 72
REMARK H PARENT 1 23 56 25 54 27 52 29 50 32 9 34 11 36 46 39 16 41 18 43
REMARK H PARENT 42 53 23 55 25 57 38 67 30 69 32 71 34 73
ROOT
ATOM      1  C   UNL     1      11.222   4.139 -12.333  1.00  0.00    +0.184 C 
ATOM      2  C   UNL     1      12.224   3.584 -13.358  1.00  0.00    +0.178 C 
ATOM      3  O   UNL     1      13.507   3.283 -12.777  1.00  0.00    -0.341 OA
ATOM      4  C   UNL     1      14.123   4.318 -12.006  1.00  0.00    +0.282 C 
ATOM      5  C   UNL     1      13.167   4.907 -10.950  1.00  0.00    +0.202 C 
ATOM      6  C   UNL     1      11.833   5.320 -11.573  1.00  0.00    +0.180 C 
ENDROOT
BRANCH   1   7
ATOM      7  O   UNL     1      10.023   4.560 -13.002  1.00  0.00    -0.341 OA
BRANCH   7   8
ATOM      8  C   UNL     1       8.850   4.348 -12.204  1.00  0.00    +0.282 C 
ATOM      9  C   UNL     1       6.349   3.029 -13.118  1.00  0.00    +0.184 C 
ATOM     10  C   UNL     1       7.736   2.341 -13.025  1.00  0.00    +0.178 C 
ATOM     11  C   UNL     1       6.369   4.457 -12.539  1.00  0.00    +0.180 C 
ATOM     12  O   UNL     1       8.594   2.953 -12.052  1.00  0.00    -0.341 OA
ATOM     13  C   UNL     1       7.689   5.153 -12.820  1.00  0.00    +0.202 C 
BRANCH   9  14
ATOM     14  O   UNL     1       5.387   2.311 -12.314  1.00  0.00    -0.341 OA
BRANCH  14  15
ATOM     15  C   UNL     1       4.424   1.590 -13.083  1.00  0.00    +0.282 C 
ATOM     16  C   UNL     1       3.919   0.803 -15.314  1.00  0.00    +0.178 C 
ATOM     17  C   UNL     1       3.687  -0.625 -14.795  1.00  0.00    +0.177 C 
ATOM     18  O   UNL     1       4.810   1.538 -14.460  1.00  0.00    -0.341 OA
ATOM     19  C   UNL     1       3.258  -0.611 -13.322  1.00  0.00    +0.179 C 
ATOM     20  C   UNL     1       4.268   0.173 -12.486  1.00  0.00    +0.202 C 
BRANCH  16  21
ATOM     21  C   UNL     1       2.626   1.594 -15.574  1.00  0.00    +0.191 C 
BRANCH  21  22
ATOM     22  O   UNL     1       1.901   1.016 -16.658  1.00  0.00    -0.394 OA
ATOM     23  H   UNL     1       2.465   0.309 -17.048  1.00  0.00    +0.210 HD
ENDBRANCH  21  22
ENDBRANCH  16  21
BRANCH  17  24
ATOM     24  O   UNL     1       2.697  -1.332 -15.549  1.00  0.00    -0.387 OA
ATOM     25  H   UNL     1       2.836  -1.106 -16.488  1.00  0.00    +0.211 HD
ENDBRANCH  17  24
BRANCH  19  26
ATOM     26  O   UNL     1       3.184  -1.964 -12.839  1.00  0.00    -0.387 OA
ATOM     27  H   UNL     1       2.227  -2.163 -12.788  1.00  0.00    +0.211 HD
ENDBRANCH  19  26
BRANCH  20  28
ATOM     28  O   UNL     1       5.512  -0.556 -12.489  1.00  0.00    -0.385 OA
ATOM     29  H   UNL     1       5.799  -0.565 -11.554  1.00  0.00    +0.211 HD
ENDBRANCH  20  28
ENDBRANCH  14  15
ENDBRANCH   9  14
BRANCH  10  30
ATOM     30  C   UNL     1       8.451   2.183 -14.379  1.00  0.00    +0.191 C 
BRANCH  30  31
ATOM     31  O   UNL     1       7.610   2.544 -15.472  1.00  0.00    -0.394 OA
ATOM     32  H   UNL     1       7.082   3.308 -15.172  1.00  0.00    +0.210 HD
ENDBRANCH  30  31
ENDBRANCH  10  30
BRANCH  11  33
ATOM     33  O   UNL     1       5.302   5.225 -13.130  1.00  0.00    -0.387 OA
ATOM     34  H   UNL     1       5.701   5.663 -13.909  1.00  0.00    +0.211 HD
ENDBRANCH  11  33
BRANCH  13  35
ATOM     35  O   UNL     1       7.821   5.301 -14.251  1.00  0.00    -0.385 OA
ATOM     36  H   UNL     1       7.022   4.869 -14.618  1.00  0.00    +0.211 HD
ENDBRANCH  13  35
ENDBRANCH   7   8
ENDBRANCH   1   7
BRANCH   2  37
ATOM     37  C   UNL     1      12.358   4.444 -14.628  1.00  0.00    +0.191 C 
BRANCH  37  38
ATOM     38  O   UNL     1      11.278   4.173 -15.520  1.00  0.00    -0.394 OA
ATOM     39  H   UNL     1      10.481   4.076 -14.968  1.00  0.00    +0.210 HD
ENDBRANCH  37  38
ENDBRANCH   2  37
BRANCH   6  40
ATOM     40  O   UNL     1      10.942   5.751 -10.530  1.00  0.00    -0.387 OA
ATOM     41  H   UNL     1      11.186   5.247  -9.728  1.00  0.00    +0.211 HD
ENDBRANCH   6  40
BRANCH   5  42
ATOM     42  O   UNL     1      13.729   6.037 -10.265  1.00  0.00    -0.385 OA
ATOM     43  H   UNL     1      14.490   6.348 -10.791  1.00  0.00    +0.211 HD
ENDBRANCH   5  42
BRANCH   4  44
ATOM     44  O   UNL     1      14.634   5.333 -12.876  1.00  0.00    -0.341 OA
BRANCH  44  45
ATOM     45  C   UNL     1      16.081   5.418 -12.907  1.00  0.00    +0.184 C 
ATOM     46  C   UNL     1      16.634   5.629 -14.342  1.00  0.00    +0.178 C 
ATOM     47  C   UNL     1      16.462   6.609 -11.987  1.00  0.00    +0.180 C 
ATOM     48  O   UNL     1      16.558   7.020 -14.704  1.00  0.00    -0.341 OA
ATOM     49  C   UNL     1      17.702   7.330 -12.495  1.00  0.00    +0.202 C 
ATOM     50  C   UNL     1      17.452   7.838 -13.940  1.00  0.00    +0.282 C 
BRANCH  46  51
ATOM     51  C   UNL     1      15.885   4.835 -15.414  1.00  0.00    +0.191 C 
BRANCH  51  52
ATOM     52  O   UNL     1      15.690   3.490 -14.975  1.00  0.00    -0.394 OA
ATOM     53  H   UNL     1      14.972   3.531 -14.316  1.00  0.00    +0.210 HD
ENDBRANCH  51  52
ENDBRANCH  46  51
BRANCH  47  54
ATOM     54  O   UNL     1      15.376   7.540 -11.858  1.00  0.00    -0.387 OA
ATOM     55  H   UNL     1      15.321   8.012 -12.713  1.00  0.00    +0.211 HD
ENDBRANCH  47  54
BRANCH  49  56
ATOM     56  O   UNL     1      18.819   6.426 -12.433  1.00  0.00    -0.385 OA
ATOM     57  H   UNL     1      19.310   6.562 -13.277  1.00  0.00    +0.211 HD
ENDBRANCH  49  56
BRANCH  50  58
ATOM     58  O   UNL     1      18.717   7.899 -14.595  1.00  0.00    -0.341 OA
BRANCH  58  59
ATOM     59  C   UNL     1      19.394   9.152 -14.488  1.00  0.00    +0.184 C 
ATOM     60  C   UNL     1      20.666   9.099 -15.374  1.00  0.00    +0.178 C 
ATOM     61  C   UNL     1      18.484  10.292 -14.960  1.00  0.00    +0.180 C 
ATOM     62  O   UNL     1      20.327   8.973 -16.772  1.00  0.00    -0.342 OA
ATOM     63  C   UNL     1      18.225  10.188 -16.464  1.00  0.00    +0.201 C 
ATOM     64  C   UNL     1      19.557  10.075 -17.226  1.00  0.00    +0.279 C 
BRANCH  60  65
ATOM     65  C   UNL     1      21.570   7.903 -15.031  1.00  0.00    +0.191 C 
BRANCH  65  66
ATOM     66  O   UNL     1      21.298   7.394 -13.722  1.00  0.00    -0.394 OA
ATOM     67  H   UNL     1      21.236   8.192 -13.157  1.00  0.00    +0.210 HD
ENDBRANCH  65  66
ENDBRANCH  60  65
BRANCH  61  68
ATOM     68  O   UNL     1      19.096  11.556 -14.667  1.00  0.00    -0.387 OA
ATOM     69  H   UNL     1      18.376  12.096 -14.277  1.00  0.00    +0.211 HD
ENDBRANCH  61  68
BRANCH  63  70
ATOM     70  O   UNL     1      17.497  11.351 -16.892  1.00  0.00    -0.385 OA
ATOM     71  H   UNL     1      18.189  12.004 -17.125  1.00  0.00    +0.211 HD
ENDBRANCH  63  70
BRANCH  64  72
ATOM     72  O   UNL     1      19.256   9.870 -18.602  1.00  0.00    -0.366 OA
ATOM     73  H   UNL     1      19.711   9.042 -18.833  1.00  0.00    +0.213 HD
ENDBRANCH  64  72
ENDBRANCH  58  59
ENDBRANCH  50  58
ENDBRANCH  44  45
ENDBRANCH   4  44
TORSDOF 30
ENDMDL
