MODEL 1
REMARK VINA RESULT:    -7.519      0.000      0.000
REMARK INTER + INTRA:         -12.279
REMARK INTER:                 -11.035
REMARK INTRA:                  -1.244
REMARK UNBOUND:                -1.244
REMARK SMILES O=S(=O)(O)OC[C@@H]1O[C@H](O[C@H]2[C@@H]3OC[C@H]2O[C@@H](O)[C@H]3O)[C@@H](O)[C@H](O)[C@@H]1O
REMARK SMILES IDX 9 1 21 2 23 3 25 4 7 5 8 6 10 7 11 8 14 9 15 10 13 11 16 12
REMARK SMILES IDX 12 13 17 14 19 15 18 16 20 18 22 20 24 22 6 24 5 25 2 26
REMARK SMILES IDX 1 27 3 28 4 29 26 31
REMARK H PARENT 18 17 20 19 22 21 24 23 4 30 26 32
ROOT
ATOM      1  C   UNL     1       3.504   5.876  -7.448  1.00  0.00    +0.282 C 
ATOM      2  C   UNL     1       1.978   5.780  -7.634  1.00  0.00    +0.202 C 
ATOM      3  C   UNL     1       1.705   5.092  -8.961  1.00  0.00    +0.179 C 
ATOM      4  C   UNL     1       2.225   3.653  -8.902  1.00  0.00    +0.177 C 
ATOM      5  C   UNL     1       3.541   3.521  -8.098  1.00  0.00    +0.180 C 
ATOM      6  O   UNL     1       4.239   4.775  -7.979  1.00  0.00    -0.341 OA
ENDROOT
BRANCH   1   7
ATOM      7  O   UNL     1       3.762   6.106  -6.060  1.00  0.00    -0.341 OA
BRANCH   7   8
ATOM      8  C   UNL     1       4.988   6.792  -5.829  1.00  0.00    +0.184 C 
ATOM      9  C   UNL     1       6.469   8.008  -4.479  1.00  0.00    +0.195 C 
ATOM     10  C   UNL     1       5.351   6.972  -4.363  1.00  0.00    +0.179 C 
ATOM     11  O   UNL     1       6.124   8.838  -5.618  1.00  0.00    -0.370 OA
ATOM     12  O   UNL     1       4.213   7.442  -3.618  1.00  0.00    -0.342 OA
ATOM     13  C   UNL     1       4.917   8.271  -6.192  1.00  0.00    +0.184 C 
ATOM     14  C   UNL     1       3.663   8.690  -4.028  1.00  0.00    +0.279 C 
ATOM     15  C   UNL     1       3.677   8.913  -5.556  1.00  0.00    +0.202 C 
BRANCH  14  16
ATOM     16  O   UNL     1       4.366   9.738  -3.366  1.00  0.00    -0.366 OA
ATOM     17  H   UNL     1       5.303   9.571  -3.571  1.00  0.00    +0.213 HD
ENDBRANCH  14  16
BRANCH  15  18
ATOM     18  O   UNL     1       3.626  10.312  -5.867  1.00  0.00    -0.385 OA
ATOM     19  H   UNL     1       4.300  10.422  -6.572  1.00  0.00    +0.211 HD
ENDBRANCH  15  18
ENDBRANCH   7   8
ENDBRANCH   1   7
BRANCH   2  20
ATOM     20  O   UNL     1       1.366   7.081  -7.642  1.00  0.00    -0.385 OA
ATOM     21  H   UNL     1       1.257   7.323  -8.583  1.00  0.00    +0.211 HD
ENDBRANCH   2  20
BRANCH   3  22
ATOM     22  O   UNL     1       0.294   5.074  -9.236  1.00  0.00    -0.387 OA
ATOM     23  H   UNL     1       0.176   4.357  -9.894  1.00  0.00    +0.211 HD
ENDBRANCH   3  22
BRANCH   5  24
ATOM     24  C   UNL     1       3.408   2.809  -6.740  1.00  0.00    +0.220 C 
BRANCH  24  25
ATOM     25  O   UNL     1       3.553   1.406  -6.948  1.00  0.00    -0.245 OA
BRANCH  25  26
ATOM     26  S   UNL     1       2.614   0.409  -6.076  1.00  0.00    +0.397 S 
ATOM     27  O   UNL     1       3.371  -0.753  -5.670  1.00  0.00    -0.169 OA
ATOM     28  O   UNL     1       1.332   0.302  -6.734  1.00  0.00    -0.169 OA
BRANCH  26  29
ATOM     29  O   UNL     1       2.326   1.290  -4.759  1.00  0.00    -0.264 OA
ATOM     30  H   UNL     1       3.154   1.769  -4.550  1.00  0.00    +0.236 HD
ENDBRANCH  26  29
ENDBRANCH  25  26
ENDBRANCH  24  25
ENDBRANCH   5  24
BRANCH   4  31
ATOM     31  O   UNL     1       1.201   2.805  -8.371  1.00  0.00    -0.387 OA
ATOM     32  H   UNL     1       1.248   2.933  -7.397  1.00  0.00    +0.211 HD
ENDBRANCH   4  31
TORSDOF 11
ENDMDL
MODEL 2
REMARK VINA RESULT:    -6.983      7.268     11.802
REMARK INTER + INTRA:         -11.492
REMARK INTER:                 -10.374
REMARK INTRA:                  -1.118
REMARK UNBOUND:                -1.244
REMARK SMILES O=S(=O)(O)OC[C@@H]1O[C@H](O[C@H]2[C@@H]3OC[C@H]2O[C@@H](O)[C@H]3O)[C@@H](O)[C@H](O)[C@@H]1O
REMARK SMILES IDX 9 1 21 2 23 3 25 4 7 5 8 6 10 7 11 8 14 9 15 10 13 11 16 12
REMARK SMILES IDX 12 13 17 14 19 15 18 16 20 18 22 20 24 22 6 24 5 25 2 26
REMARK SMILES IDX 1 27 3 28 4 29 26 31
REMARK H PARENT 18 17 20 19 22 21 24 23 4 30 26 32
ROOT
ATOM      1  C   UNL     1       0.974  -4.909  -5.167  1.00  0.00    +0.282 C 
ATOM      2  C   UNL     1       2.238  -4.728  -4.304  1.00  0.00    +0.202 C 
ATOM      3  C   UNL     1       3.445  -4.729  -5.226  1.00  0.00    +0.179 C 
ATOM      4  C   UNL     1       3.375  -3.511  -6.152  1.00  0.00    +0.177 C 
ATOM      5  C   UNL     1       1.932  -3.173  -6.595  1.00  0.00    +0.180 C 
ATOM      6  O   UNL     1       1.038  -4.293  -6.452  1.00  0.00    -0.341 OA
ENDROOT
BRANCH   1   7
ATOM      7  O   UNL     1      -0.149  -4.479  -4.392  1.00  0.00    -0.341 OA
BRANCH   7   8
ATOM      8  C   UNL     1      -1.322  -5.248  -4.640  1.00  0.00    +0.184 C 
ATOM      9  C   UNL     1      -3.632  -5.619  -4.508  1.00  0.00    +0.195 C 
ATOM     10  C   UNL     1      -2.625  -4.469  -4.548  1.00  0.00    +0.179 C 
ATOM     11  O   UNL     1      -2.967  -6.704  -3.811  1.00  0.00    -0.370 OA
ATOM     12  O   UNL     1      -2.641  -3.656  -3.361  1.00  0.00    -0.342 OA
ATOM     13  C   UNL     1      -1.617  -6.251  -3.531  1.00  0.00    +0.184 C 
ATOM     14  C   UNL     1      -2.524  -4.347  -2.121  1.00  0.00    +0.279 C 
ATOM     15  C   UNL     1      -1.565  -5.558  -2.163  1.00  0.00    +0.202 C 
BRANCH  14  16
ATOM     16  O   UNL     1      -3.823  -4.757  -1.702  1.00  0.00    -0.366 OA
ATOM     17  H   UNL     1      -3.953  -5.625  -2.124  1.00  0.00    +0.213 HD
ENDBRANCH  14  16
BRANCH  15  18
ATOM     18  O   UNL     1      -1.877  -6.491  -1.120  1.00  0.00    -0.385 OA
ATOM     19  H   UNL     1      -1.019  -6.631  -0.664  1.00  0.00    +0.211 HD
ENDBRANCH  15  18
ENDBRANCH   7   8
ENDBRANCH   1   7
BRANCH   2  20
ATOM     20  O   UNL     1       2.376  -5.790  -3.345  1.00  0.00    -0.385 OA
ATOM     21  H   UNL     1       1.467  -6.045  -3.091  1.00  0.00    +0.211 HD
ENDBRANCH   2  20
BRANCH   3  22
ATOM     22  O   UNL     1       4.661  -4.672  -4.461  1.00  0.00    -0.387 OA
ATOM     23  H   UNL     1       5.149  -3.902  -4.822  1.00  0.00    +0.211 HD
ENDBRANCH   3  22
BRANCH   5  24
ATOM     24  C   UNL     1       1.344  -1.889  -5.981  1.00  0.00    +0.220 C 
BRANCH  24  25
ATOM     25  O   UNL     1       1.238  -0.905  -7.007  1.00  0.00    -0.245 OA
BRANCH  25  26
ATOM     26  S   UNL     1       2.167   0.421  -6.883  1.00  0.00    +0.397 S 
ATOM     27  O   UNL     1       1.627   1.481  -7.705  1.00  0.00    -0.169 OA
ATOM     28  O   UNL     1       3.551   0.015  -6.963  1.00  0.00    -0.169 OA
BRANCH  26  29
ATOM     29  O   UNL     1       1.950   0.838  -5.344  1.00  0.00    -0.264 OA
ATOM     30  H   UNL     1       2.136   1.797  -5.279  1.00  0.00    +0.236 HD
ENDBRANCH  26  29
ENDBRANCH  25  26
ENDBRANCH  24  25
ENDBRANCH   5  24
BRANCH   4  31
ATOM     31  O   UNL     1       4.000  -2.395  -5.507  1.00  0.00    -0.387 OA
ATOM     32  H   UNL     1       4.656  -2.063  -6.160  1.00  0.00    +0.211 HD
ENDBRANCH   4  31
TORSDOF 11
ENDMDL
MODEL 3
REMARK VINA RESULT:    -6.706      9.944     12.707
REMARK INTER + INTRA:         -11.087
REMARK INTER:                  -9.407
REMARK INTRA:                  -1.680
REMARK UNBOUND:                -1.244
REMARK SMILES O=S(=O)(O)OC[C@@H]1O[C@H](O[C@H]2[C@@H]3OC[C@H]2O[C@@H](O)[C@H]3O)[C@@H](O)[C@H](O)[C@@H]1O
REMARK SMILES IDX 9 1 21 2 23 3 25 4 7 5 8 6 10 7 11 8 14 9 15 10 13 11 16 12
REMARK SMILES IDX 12 13 17 14 19 15 18 16 20 18 22 20 24 22 6 24 5 25 2 26
REMARK SMILES IDX 1 27 3 28 4 29 26 31
REMARK H PARENT 18 17 20 19 22 21 24 23 4 30 26 32
ROOT
ATOM      1  C   UNL     1       0.994  -4.482  -4.340  1.00  0.00    +0.282 C 
ATOM      2  C   UNL     1       1.340  -4.245  -5.822  1.00  0.00    +0.202 C 
ATOM      3  C   UNL     1       2.803  -3.848  -5.910  1.00  0.00    +0.179 C 
ATOM      4  C   UNL     1       3.674  -5.019  -5.444  1.00  0.00    +0.177 C 
ATOM      5  C   UNL     1       3.046  -5.807  -4.270  1.00  0.00    +0.180 C 
ATOM      6  O   UNL     1       2.053  -5.039  -3.563  1.00  0.00    -0.341 OA
ENDROOT
BRANCH   1   7
ATOM      7  O   UNL     1      -0.208  -5.257  -4.289  1.00  0.00    -0.341 OA
BRANCH   7   8
ATOM      8  C   UNL     1      -1.249  -4.620  -3.555  1.00  0.00    +0.184 C 
ATOM      9  C   UNL     1      -3.197  -4.656  -2.253  1.00  0.00    +0.195 C 
ATOM     10  C   UNL     1      -1.979  -5.524  -2.574  1.00  0.00    +0.179 C 
ATOM     11  O   UNL     1      -3.488  -3.917  -3.467  1.00  0.00    -0.370 OA
ATOM     12  O   UNL     1      -2.319  -6.774  -3.199  1.00  0.00    -0.342 OA
ATOM     13  C   UNL     1      -2.452  -4.264  -4.421  1.00  0.00    +0.184 C 
ATOM     14  C   UNL     1      -3.163  -6.697  -4.343  1.00  0.00    +0.279 C 
ATOM     15  C   UNL     1      -2.884  -5.480  -5.253  1.00  0.00    +0.202 C 
BRANCH  14  16
ATOM     16  O   UNL     1      -4.521  -6.693  -3.911  1.00  0.00    -0.366 OA
ATOM     17  H   UNL     1      -4.470  -6.554  -2.948  1.00  0.00    +0.213 HD
ENDBRANCH  14  16
BRANCH  15  18
ATOM     18  O   UNL     1      -4.036  -5.158  -6.042  1.00  0.00    -0.385 OA
ATOM     19  H   UNL     1      -4.757  -5.687  -5.636  1.00  0.00    +0.211 HD
ENDBRANCH  15  18
ENDBRANCH   7   8
ENDBRANCH   1   7
BRANCH   2  20
ATOM     20  O   UNL     1       0.532  -3.199  -6.390  1.00  0.00    -0.385 OA
ATOM     21  H   UNL     1       1.137  -2.449  -6.555  1.00  0.00    +0.211 HD
ENDBRANCH   2  20
BRANCH   3  22
ATOM     22  O   UNL     1       3.151  -3.509  -7.263  1.00  0.00    -0.387 OA
ATOM     23  H   UNL     1       2.749  -4.216  -7.810  1.00  0.00    +0.211 HD
ENDBRANCH   3  22
BRANCH   5  24
ATOM     24  C   UNL     1       2.534  -7.214  -4.627  1.00  0.00    +0.220 C 
BRANCH  24  25
ATOM     25  O   UNL     1       2.270  -7.921  -3.418  1.00  0.00    -0.245 OA
BRANCH  25  26
ATOM     26  S   UNL     1       0.885  -8.761  -3.318  1.00  0.00    +0.397 S 
ATOM     27  O   UNL     1       0.235  -8.495  -2.055  1.00  0.00    -0.169 OA
ATOM     28  O   UNL     1       1.135 -10.105  -3.788  1.00  0.00    -0.169 OA
BRANCH  26  29
ATOM     29  O   UNL     1      -0.002  -8.081  -4.477  1.00  0.00    -0.264 OA
ATOM     30  H   UNL     1      -0.242  -8.791  -5.106  1.00  0.00    +0.236 HD
ENDBRANCH  26  29
ENDBRANCH  25  26
ENDBRANCH  24  25
ENDBRANCH   5  24
BRANCH   4  31
ATOM     31  O   UNL     1       3.947  -5.873  -6.561  1.00  0.00    -0.387 OA
ATOM     32  H   UNL     1       4.303  -5.274  -7.254  1.00  0.00    +0.211 HD
ENDBRANCH   4  31
TORSDOF 11
ENDMDL
MODEL 4
REMARK VINA RESULT:    -6.302      9.868     13.402
REMARK INTER + INTRA:         -10.494
REMARK INTER:                  -9.331
REMARK INTRA:                  -1.162
REMARK UNBOUND:                -1.244
REMARK SMILES O=S(=O)(O)OC[C@@H]1O[C@H](O[C@H]2[C@@H]3OC[C@H]2O[C@@H](O)[C@H]3O)[C@@H](O)[C@H](O)[C@@H]1O
REMARK SMILES IDX 9 1 21 2 23 3 25 4 7 5 8 6 10 7 11 8 14 9 15 10 13 11 16 12
REMARK SMILES IDX 12 13 17 14 19 15 18 16 20 18 22 20 24 22 6 24 5 25 2 26
REMARK SMILES IDX 1 27 3 28 4 29 26 31
REMARK H PARENT 18 17 20 19 22 21 24 23 4 30 26 32
ROOT
ATOM      1  C   UNL     1      -0.140  -5.009  -3.620  1.00  0.00    +0.282 C 
ATOM      2  C   UNL     1      -0.351  -4.545  -5.074  1.00  0.00    +0.202 C 
ATOM      3  C   UNL     1       0.641  -3.432  -5.366  1.00  0.00    +0.179 C 
ATOM      4  C   UNL     1       2.065  -3.992  -5.292  1.00  0.00    +0.177 C 
ATOM      5  C   UNL     1       2.238  -5.055  -4.181  1.00  0.00    +0.180 C 
ATOM      6  O   UNL     1       1.214  -4.965  -3.172  1.00  0.00    -0.341 OA
ENDROOT
BRANCH   1   7
ATOM      7  O   UNL     1      -0.736  -6.302  -3.482  1.00  0.00    -0.341 OA
BRANCH   7   8
ATOM      8  C   UNL     1      -0.457  -6.911  -2.226  1.00  0.00    +0.184 C 
ATOM      9  C   UNL     1      -0.714  -8.617  -0.638  1.00  0.00    +0.195 C 
ATOM     10  C   UNL     1      -0.789  -8.393  -2.150  1.00  0.00    +0.179 C 
ATOM     11  O   UNL     1      -1.157  -7.375  -0.032  1.00  0.00    -0.370 OA
ATOM     12  O   UNL     1      -2.095  -8.644  -2.698  1.00  0.00    -0.342 OA
ATOM     13  C   UNL     1      -1.398  -6.446  -1.120  1.00  0.00    +0.184 C 
ATOM     14  C   UNL     1      -3.183  -7.979  -2.065  1.00  0.00    +0.279 C 
ATOM     15  C   UNL     1      -2.856  -6.547  -1.589  1.00  0.00    +0.202 C 
BRANCH  14  16
ATOM     16  O   UNL     1      -3.632  -8.776  -0.972  1.00  0.00    -0.366 OA
ATOM     17  H   UNL     1      -3.026  -8.554  -0.243  1.00  0.00    +0.213 HD
ENDBRANCH  14  16
BRANCH  15  18
ATOM     18  O   UNL     1      -3.745  -6.143  -0.539  1.00  0.00    -0.385 OA
ATOM     19  H   UNL     1      -4.306  -6.933  -0.387  1.00  0.00    +0.211 HD
ENDBRANCH  15  18
ENDBRANCH   7   8
ENDBRANCH   1   7
BRANCH   2  20
ATOM     20  O   UNL     1      -1.687  -4.053  -5.280  1.00  0.00    -0.385 OA
ATOM     21  H   UNL     1      -1.644  -3.477  -6.068  1.00  0.00    +0.211 HD
ENDBRANCH   2  20
BRANCH   3  22
ATOM     22  O   UNL     1       0.413  -2.888  -6.676  1.00  0.00    -0.387 OA
ATOM     23  H   UNL     1      -0.556  -2.951  -6.809  1.00  0.00    +0.211 HD
ENDBRANCH   3  22
BRANCH   5  24
ATOM     24  C   UNL     1       2.424  -6.498  -4.682  1.00  0.00    +0.220 C 
BRANCH  24  25
ATOM     25  O   UNL     1       3.645  -7.008  -4.151  1.00  0.00    -0.245 OA
BRANCH  25  26
ATOM     26  S   UNL     1       5.032  -6.516  -4.836  1.00  0.00    +0.397 S 
ATOM     27  O   UNL     1       5.665  -5.516  -4.007  1.00  0.00    -0.169 OA
ATOM     28  O   UNL     1       4.793  -6.308  -6.247  1.00  0.00    -0.169 OA
BRANCH  26  29
ATOM     29  O   UNL     1       5.931  -7.850  -4.765  1.00  0.00    -0.264 OA
ATOM     30  H   UNL     1       6.804  -7.626  -5.145  1.00  0.00    +0.236 HD
ENDBRANCH  26  29
ENDBRANCH  25  26
ENDBRANCH  24  25
ENDBRANCH   5  24
BRANCH   4  31
ATOM     31  O   UNL     1       2.431  -4.512  -6.575  1.00  0.00    -0.387 OA
ATOM     32  H   UNL     1       2.310  -5.484  -6.496  1.00  0.00    +0.211 HD
ENDBRANCH   4  31
TORSDOF 11
ENDMDL
MODEL 5
REMARK VINA RESULT:    -6.270     11.648     15.629
REMARK INTER + INTRA:         -10.447
REMARK INTER:                  -8.857
REMARK INTRA:                  -1.590
REMARK UNBOUND:                -1.244
REMARK SMILES O=S(=O)(O)OC[C@@H]1O[C@H](O[C@H]2[C@@H]3OC[C@H]2O[C@@H](O)[C@H]3O)[C@@H](O)[C@H](O)[C@@H]1O
REMARK SMILES IDX 9 1 21 2 23 3 25 4 7 5 8 6 10 7 11 8 14 9 15 10 13 11 16 12
REMARK SMILES IDX 12 13 17 14 19 15 18 16 20 18 22 20 24 22 6 24 5 25 2 26
REMARK SMILES IDX 1 27 3 28 4 29 26 31
REMARK H PARENT 18 17 20 19 22 21 24 23 4 30 26 32
ROOT
ATOM      1  C   UNL     1      -1.632  -6.712  -3.322  1.00  0.00    +0.282 C 
ATOM      2  C   UNL     1      -2.152  -5.318  -2.918  1.00  0.00    +0.202 C 
ATOM      3  C   UNL     1      -1.682  -4.317  -3.959  1.00  0.00    +0.179 C 
ATOM      4  C   UNL     1      -2.329  -4.647  -5.307  1.00  0.00    +0.177 C 
ATOM      5  C   UNL     1      -2.469  -6.169  -5.552  1.00  0.00    +0.180 C 
ATOM      6  O   UNL     1      -1.575  -6.941  -4.728  1.00  0.00    -0.341 OA
ENDROOT
BRANCH   1   7
ATOM      7  O   UNL     1      -2.411  -7.688  -2.624  1.00  0.00    -0.341 OA
BRANCH   7   8
ATOM      8  C   UNL     1      -1.623  -8.748  -2.090  1.00  0.00    +0.184 C 
ATOM      9  C   UNL     1      -1.365 -10.892  -1.180  1.00  0.00    +0.195 C 
ATOM     10  C   UNL     1      -2.295 -10.112  -2.110  1.00  0.00    +0.179 C 
ATOM     11  O   UNL     1      -0.889  -9.934  -0.200  1.00  0.00    -0.370 OA
ATOM     12  O   UNL     1      -3.644 -10.015  -1.616  1.00  0.00    -0.342 OA
ATOM     13  C   UNL     1      -1.439  -8.646  -0.580  1.00  0.00    +0.184 C 
ATOM     14  C   UNL     1      -3.794  -9.538  -0.284  1.00  0.00    +0.279 C 
ATOM     15  C   UNL     1      -2.794  -8.426   0.105  1.00  0.00    +0.202 C 
BRANCH  14  16
ATOM     16  O   UNL     1      -3.684 -10.641   0.612  1.00  0.00    -0.366 OA
ATOM     17  H   UNL     1      -4.266 -11.323   0.233  1.00  0.00    +0.213 HD
ENDBRANCH  14  16
BRANCH  15  18
ATOM     18  O   UNL     1      -2.628  -8.364   1.528  1.00  0.00    -0.385 OA
ATOM     19  H   UNL     1      -2.312  -9.262   1.768  1.00  0.00    +0.211 HD
ENDBRANCH  15  18
ENDBRANCH   7   8
ENDBRANCH   1   7
BRANCH   2  20
ATOM     20  O   UNL     1      -1.656  -4.926  -1.627  1.00  0.00    -0.385 OA
ATOM     21  H   UNL     1      -1.533  -5.753  -1.121  1.00  0.00    +0.211 HD
ENDBRANCH   2  20
BRANCH   3  22
ATOM     22  O   UNL     1      -2.049  -2.982  -3.572  1.00  0.00    -0.387 OA
ATOM     23  H   UNL     1      -2.966  -2.869  -3.900  1.00  0.00    +0.211 HD
ENDBRANCH   3  22
BRANCH   5  24
ATOM     24  C   UNL     1      -3.910  -6.708  -5.497  1.00  0.00    +0.220 C 
BRANCH  24  25
ATOM     25  O   UNL     1      -3.982  -7.888  -6.294  1.00  0.00    -0.245 OA
BRANCH  25  26
ATOM     26  S   UNL     1      -4.567  -9.235  -5.602  1.00  0.00    +0.397 S 
ATOM     27  O   UNL     1      -3.571 -10.282  -5.640  1.00  0.00    -0.169 OA
ATOM     28  O   UNL     1      -5.917  -9.439  -6.076  1.00  0.00    -0.169 OA
BRANCH  26  29
ATOM     29  O   UNL     1      -4.736  -8.776  -4.069  1.00  0.00    -0.264 OA
ATOM     30  H   UNL     1      -3.840  -8.564  -3.734  1.00  0.00    +0.236 HD
ENDBRANCH  26  29
ENDBRANCH  25  26
ENDBRANCH  24  25
ENDBRANCH   5  24
BRANCH   4  31
ATOM     31  O   UNL     1      -3.595  -3.984  -5.394  1.00  0.00    -0.387 OA
ATOM     32  H   UNL     1      -3.436  -3.088  -5.021  1.00  0.00    +0.211 HD
ENDBRANCH   4  31
TORSDOF 11
ENDMDL
MODEL 6
REMARK VINA RESULT:    -6.204      2.809      7.132
REMARK INTER + INTRA:         -10.350
REMARK INTER:                  -9.068
REMARK INTRA:                  -1.281
REMARK UNBOUND:                -1.244
REMARK SMILES O=S(=O)(O)OC[C@@H]1O[C@H](O[C@H]2[C@@H]3OC[C@H]2O[C@@H](O)[C@H]3O)[C@@H](O)[C@H](O)[C@@H]1O
REMARK SMILES IDX 9 1 21 2 23 3 25 4 7 5 8 6 10 7 11 8 14 9 15 10 13 11 16 12
REMARK SMILES IDX 12 13 17 14 19 15 18 16 20 18 22 20 24 22 6 24 5 25 2 26
REMARK SMILES IDX 1 27 3 28 4 29 26 31
REMARK H PARENT 18 17 20 19 22 21 24 23 4 30 26 32
ROOT
ATOM      1  C   UNL     1       4.030   7.267  -4.451  1.00  0.00    +0.282 C 
ATOM      2  C   UNL     1       3.892   8.786  -4.676  1.00  0.00    +0.202 C 
ATOM      3  C   UNL     1       4.633   9.500  -3.558  1.00  0.00    +0.179 C 
ATOM      4  C   UNL     1       6.128   9.182  -3.659  1.00  0.00    +0.177 C 
ATOM      5  C   UNL     1       6.405   7.727  -4.109  1.00  0.00    +0.180 C 
ATOM      6  O   UNL     1       5.276   6.860  -3.889  1.00  0.00    -0.341 OA
ENDROOT
BRANCH   1   7
ATOM      7  O   UNL     1       3.731   6.613  -5.687  1.00  0.00    -0.341 OA
BRANCH   7   8
ATOM      8  C   UNL     1       3.868   5.198  -5.614  1.00  0.00    +0.184 C 
ATOM      9  C   UNL     1       4.324   3.101  -6.557  1.00  0.00    +0.195 C 
ATOM     10  C   UNL     1       4.674   4.578  -6.745  1.00  0.00    +0.179 C 
ATOM     11  O   UNL     1       2.962   3.077  -6.059  1.00  0.00    -0.370 OA
ATOM     12  O   UNL     1       4.250   5.107  -8.014  1.00  0.00    -0.342 OA
ATOM     13  C   UNL     1       2.561   4.461  -5.883  1.00  0.00    +0.184 C 
ATOM     14  C   UNL     1       2.885   4.895  -8.361  1.00  0.00    +0.279 C 
ATOM     15  C   UNL     1       1.909   4.991  -7.167  1.00  0.00    +0.202 C 
BRANCH  14  16
ATOM     16  O   UNL     1       2.768   3.626  -8.998  1.00  0.00    -0.366 OA
ATOM     17  H   UNL     1       3.674   3.409  -9.281  1.00  0.00    +0.213 HD
ENDBRANCH  14  16
BRANCH  15  18
ATOM     18  O   UNL     1       0.697   4.276  -7.441  1.00  0.00    -0.385 OA
ATOM     19  H   UNL     1       0.822   3.941  -8.355  1.00  0.00    +0.211 HD
ENDBRANCH  15  18
ENDBRANCH   7   8
ENDBRANCH   1   7
BRANCH   2  20
ATOM     20  O   UNL     1       2.513   9.195  -4.665  1.00  0.00    -0.385 OA
ATOM     21  H   UNL     1       2.209   9.144  -5.592  1.00  0.00    +0.211 HD
ENDBRANCH   2  20
BRANCH   3  22
ATOM     22  O   UNL     1       4.444  10.921  -3.659  1.00  0.00    -0.387 OA
ATOM     23  H   UNL     1       5.348  11.287  -3.761  1.00  0.00    +0.211 HD
ENDBRANCH   3  22
BRANCH   5  24
ATOM     24  C   UNL     1       6.972   7.581  -5.533  1.00  0.00    +0.220 C 
BRANCH  24  25
ATOM     25  O   UNL     1       8.393   7.677  -5.467  1.00  0.00    -0.245 OA
BRANCH  25  26
ATOM     26  S   UNL     1       9.154   8.473  -6.659  1.00  0.00    +0.397 S 
ATOM     27  O   UNL     1       9.198   9.886  -6.360  1.00  0.00    -0.169 OA
ATOM     28  O   UNL     1       8.667   7.969  -7.924  1.00  0.00    -0.169 OA
BRANCH  26  29
ATOM     29  O   UNL     1      10.653   7.900  -6.539  1.00  0.00    -0.264 OA
ATOM     30  H   UNL     1      10.748   7.205  -7.222  1.00  0.00    +0.236 HD
ENDBRANCH  26  29
ENDBRANCH  25  26
ENDBRANCH  24  25
ENDBRANCH   5  24
BRANCH   4  31
ATOM     31  O   UNL     1       6.751  10.128  -4.535  1.00  0.00    -0.387 OA
ATOM     32  H   UNL     1       7.203   9.580  -5.215  1.00  0.00    +0.211 HD
ENDBRANCH   4  31
TORSDOF 11
ENDMDL
MODEL 7
REMARK VINA RESULT:    -6.034     10.716     14.625
REMARK INTER + INTRA:         -10.100
REMARK INTER:                  -9.225
REMARK INTRA:                  -0.876
REMARK UNBOUND:                -1.244
REMARK SMILES O=S(=O)(O)OC[C@@H]1O[C@H](O[C@H]2[C@@H]3OC[C@H]2O[C@@H](O)[C@H]3O)[C@@H](O)[C@H](O)[C@@H]1O
REMARK SMILES IDX 9 1 21 2 23 3 25 4 7 5 8 6 10 7 11 8 14 9 15 10 13 11 16 12
REMARK SMILES IDX 12 13 17 14 19 15 18 16 20 18 22 20 24 22 6 24 5 25 2 26
REMARK SMILES IDX 1 27 3 28 4 29 26 31
REMARK H PARENT 18 17 20 19 22 21 24 23 4 30 26 32
ROOT
ATOM      1  C   UNL     1      -1.978  -6.233  -2.663  1.00  0.00    +0.282 C 
ATOM      2  C   UNL     1      -2.888  -5.694  -3.783  1.00  0.00    +0.202 C 
ATOM      3  C   UNL     1      -2.693  -4.190  -3.871  1.00  0.00    +0.179 C 
ATOM      4  C   UNL     1      -1.254  -3.891  -4.301  1.00  0.00    +0.177 C 
ATOM      5  C   UNL     1      -0.227  -4.876  -3.695  1.00  0.00    +0.180 C 
ATOM      6  O   UNL     1      -0.734  -5.547  -2.526  1.00  0.00    -0.341 OA
ENDROOT
BRANCH   1   7
ATOM      7  O   UNL     1      -1.824  -7.641  -2.863  1.00  0.00    -0.341 OA
BRANCH   7   8
ATOM      8  C   UNL     1      -0.843  -8.219  -2.009  1.00  0.00    +0.184 C 
ATOM      9  C   UNL     1       0.140 -10.037  -0.903  1.00  0.00    +0.195 C 
ATOM     10  C   UNL     1      -0.680  -9.724  -2.155  1.00  0.00    +0.179 C 
ATOM     11  O   UNL     1      -0.297  -9.088   0.104  1.00  0.00    -0.370 OA
ATOM     12  O   UNL     1      -1.965 -10.370  -2.171  1.00  0.00    -0.342 OA
ATOM     13  C   UNL     1      -1.257  -8.213  -0.542  1.00  0.00    +0.184 C 
ATOM     14  C   UNL     1      -2.776 -10.188  -1.015  1.00  0.00    +0.279 C 
ATOM     15  C   UNL     1      -2.676  -8.779  -0.389  1.00  0.00    +0.202 C 
BRANCH  14  16
ATOM     16  O   UNL     1      -2.432 -11.183  -0.054  1.00  0.00    -0.366 OA
ATOM     17  H   UNL     1      -1.488 -11.030   0.129  1.00  0.00    +0.213 HD
ENDBRANCH  14  16
BRANCH  15  18
ATOM     18  O   UNL     1      -3.055  -8.806   0.993  1.00  0.00    -0.385 OA
ATOM     19  H   UNL     1      -4.030  -8.913   0.969  1.00  0.00    +0.211 HD
ENDBRANCH  15  18
ENDBRANCH   7   8
ENDBRANCH   1   7
BRANCH   2  20
ATOM     20  O   UNL     1      -4.273  -5.976  -3.516  1.00  0.00    -0.385 OA
ATOM     21  H   UNL     1      -4.786  -5.332  -4.042  1.00  0.00    +0.211 HD
ENDBRANCH   2  20
BRANCH   3  22
ATOM     22  O   UNL     1      -3.602  -3.621  -4.829  1.00  0.00    -0.387 OA
ATOM     23  H   UNL     1      -3.519  -4.192  -5.621  1.00  0.00    +0.211 HD
ENDBRANCH   3  22
BRANCH   5  24
ATOM     24  C   UNL     1       0.400  -5.864  -4.696  1.00  0.00    +0.220 C 
BRANCH  24  25
ATOM     25  O   UNL     1       1.399  -5.176  -5.445  1.00  0.00    -0.245 OA
BRANCH  25  26
ATOM     26  S   UNL     1       2.951  -5.410  -5.030  1.00  0.00    +0.397 S 
ATOM     27  O   UNL     1       3.587  -6.297  -5.978  1.00  0.00    -0.169 OA
ATOM     28  O   UNL     1       3.010  -5.637  -3.604  1.00  0.00    -0.169 OA
BRANCH  26  29
ATOM     29  O   UNL     1       3.578  -3.942  -5.238  1.00  0.00    -0.264 OA
ATOM     30  H   UNL     1       4.547  -4.054  -5.317  1.00  0.00    +0.236 HD
ENDBRANCH  26  29
ENDBRANCH  25  26
ENDBRANCH  24  25
ENDBRANCH   5  24
BRANCH   4  31
ATOM     31  O   UNL     1      -1.186  -3.877  -5.731  1.00  0.00    -0.387 OA
ATOM     32  H   UNL     1      -1.525  -2.991  -5.991  1.00  0.00    +0.211 HD
ENDBRANCH   4  31
TORSDOF 11
ENDMDL
MODEL 8
REMARK VINA RESULT:    -6.028      2.721      4.215
REMARK INTER + INTRA:         -10.092
REMARK INTER:                  -9.077
REMARK INTRA:                  -1.014
REMARK UNBOUND:                -1.244
REMARK SMILES O=S(=O)(O)OC[C@@H]1O[C@H](O[C@H]2[C@@H]3OC[C@H]2O[C@@H](O)[C@H]3O)[C@@H](O)[C@H](O)[C@@H]1O
REMARK SMILES IDX 9 1 21 2 23 3 25 4 7 5 8 6 10 7 11 8 14 9 15 10 13 11 16 12
REMARK SMILES IDX 12 13 17 14 19 15 18 16 20 18 22 20 24 22 6 24 5 25 2 26
REMARK SMILES IDX 1 27 3 28 4 29 26 31
REMARK H PARENT 18 17 20 19 22 21 24 23 4 30 26 32
ROOT
ATOM      1  C   UNL     1       2.756   6.406  -7.140  1.00  0.00    +0.282 C 
ATOM      2  C   UNL     1       2.359   4.931  -6.938  1.00  0.00    +0.202 C 
ATOM      3  C   UNL     1       1.310   4.576  -7.978  1.00  0.00    +0.179 C 
ATOM      4  C   UNL     1       1.930   4.669  -9.375  1.00  0.00    +0.177 C 
ATOM      5  C   UNL     1       2.940   5.834  -9.509  1.00  0.00    +0.180 C 
ATOM      6  O   UNL     1       2.751   6.842  -8.498  1.00  0.00    -0.341 OA
ENDROOT
BRANCH   1   7
ATOM      7  O   UNL     1       4.011   6.615  -6.487  1.00  0.00    -0.341 OA
BRANCH   7   8
ATOM      8  C   UNL     1       4.466   7.961  -6.574  1.00  0.00    +0.184 C 
ATOM      9  C   UNL     1       5.998   9.674  -6.110  1.00  0.00    +0.195 C 
ATOM     10  C   UNL     1       5.945   8.154  -6.276  1.00  0.00    +0.179 C 
ATOM     11  O   UNL     1       4.719  10.054  -5.540  1.00  0.00    -0.370 OA
ATOM     12  O   UNL     1       6.314   7.438  -5.084  1.00  0.00    -0.342 OA
ATOM     13  C   UNL     1       3.926   8.842  -5.453  1.00  0.00    +0.184 C 
ATOM     14  C   UNL     1       5.635   7.809  -3.889  1.00  0.00    +0.279 C 
ATOM     15  C   UNL     1       4.145   8.163  -4.094  1.00  0.00    +0.202 C 
BRANCH  14  16
ATOM     16  O   UNL     1       6.327   8.902  -3.291  1.00  0.00    -0.366 OA
ATOM     17  H   UNL     1       6.451   9.540  -4.017  1.00  0.00    +0.213 HD
ENDBRANCH  14  16
BRANCH  15  18
ATOM     18  O   UNL     1       3.670   9.004  -3.035  1.00  0.00    -0.385 OA
ATOM     19  H   UNL     1       4.381   8.958  -2.360  1.00  0.00    +0.211 HD
ENDBRANCH  15  18
ENDBRANCH   7   8
ENDBRANCH   1   7
BRANCH   2  20
ATOM     20  O   UNL     1       1.817   4.708  -5.625  1.00  0.00    -0.385 OA
ATOM     21  H   UNL     1       1.720   5.592  -5.219  1.00  0.00    +0.211 HD
ENDBRANCH   2  20
BRANCH   3  22
ATOM     22  O   UNL     1       0.824   3.239  -7.764  1.00  0.00    -0.387 OA
ATOM     23  H   UNL     1      -0.151   3.313  -7.834  1.00  0.00    +0.211 HD
ENDBRANCH   3  22
BRANCH   5  24
ATOM     24  C   UNL     1       4.415   5.407  -9.625  1.00  0.00    +0.220 C 
BRANCH  24  25
ATOM     25  O   UNL     1       4.594   4.731 -10.867  1.00  0.00    -0.245 OA
BRANCH  25  26
ATOM     26  S   UNL     1       5.447   5.487 -12.024  1.00  0.00    +0.397 S 
ATOM     27  O   UNL     1       6.633   6.083 -11.453  1.00  0.00    -0.169 OA
ATOM     28  O   UNL     1       4.527   6.239 -12.847  1.00  0.00    -0.169 OA
BRANCH  26  29
ATOM     29  O   UNL     1       5.915   4.257 -12.950  1.00  0.00    -0.264 OA
ATOM     30  H   UNL     1       6.853   4.415 -13.181  1.00  0.00    +0.236 HD
ENDBRANCH  26  29
ENDBRANCH  25  26
ENDBRANCH  24  25
ENDBRANCH   5  24
BRANCH   4  31
ATOM     31  O   UNL     1       2.532   3.413  -9.706  1.00  0.00    -0.387 OA
ATOM     32  H   UNL     1       2.283   3.255 -10.644  1.00  0.00    +0.211 HD
ENDBRANCH   4  31
TORSDOF 11
ENDMDL
MODEL 9
REMARK VINA RESULT:    -5.864     11.551     15.671
REMARK INTER + INTRA:          -9.851
REMARK INTER:                  -8.562
REMARK INTRA:                  -1.289
REMARK UNBOUND:                -1.244
REMARK SMILES O=S(=O)(O)OC[C@@H]1O[C@H](O[C@H]2[C@@H]3OC[C@H]2O[C@@H](O)[C@H]3O)[C@@H](O)[C@H](O)[C@@H]1O
REMARK SMILES IDX 9 1 21 2 23 3 25 4 7 5 8 6 10 7 11 8 14 9 15 10 13 11 16 12
REMARK SMILES IDX 12 13 17 14 19 15 18 16 20 18 22 20 24 22 6 24 5 25 2 26
REMARK SMILES IDX 1 27 3 28 4 29 26 31
REMARK H PARENT 18 17 20 19 22 21 24 23 4 30 26 32
ROOT
ATOM      1  C   UNL     1       1.575  -8.179  -3.955  1.00  0.00    +0.282 C 
ATOM      2  C   UNL     1       2.137  -6.778  -3.645  1.00  0.00    +0.202 C 
ATOM      3  C   UNL     1       1.656  -5.826  -4.727  1.00  0.00    +0.179 C 
ATOM      4  C   UNL     1       0.132  -5.706  -4.654  1.00  0.00    +0.177 C 
ATOM      5  C   UNL     1      -0.561  -7.040  -4.287  1.00  0.00    +0.180 C 
ATOM      6  O   UNL     1       0.277  -8.182  -4.547  1.00  0.00    -0.341 OA
ENDROOT
BRANCH   1   7
ATOM      7  O   UNL     1       1.647  -8.954  -2.754  1.00  0.00    -0.341 OA
BRANCH   7   8
ATOM      8  C   UNL     1       1.346 -10.330  -2.963  1.00  0.00    +0.184 C 
ATOM      9  C   UNL     1       0.043 -12.249  -2.623  1.00  0.00    +0.195 C 
ATOM     10  C   UNL     1      -0.086 -10.725  -2.634  1.00  0.00    +0.179 C 
ATOM     11  O   UNL     1       1.382 -12.530  -2.140  1.00  0.00    -0.370 OA
ATOM     12  O   UNL     1      -0.479 -10.177  -1.363  1.00  0.00    -0.342 OA
ATOM     13  C   UNL     1       2.034 -11.246  -1.957  1.00  0.00    +0.184 C 
ATOM     14  C   UNL     1       0.293 -10.580  -0.237  1.00  0.00    +0.279 C 
ATOM     15  C   UNL     1       1.802 -10.733  -0.529  1.00  0.00    +0.202 C 
BRANCH  14  16
ATOM     16  O   UNL     1      -0.241 -11.800   0.270  1.00  0.00    -0.366 OA
ATOM     17  H   UNL     1      -0.999 -11.527   0.816  1.00  0.00    +0.213 HD
ENDBRANCH  14  16
BRANCH  15  18
ATOM     18  O   UNL     1       2.419 -11.612   0.421  1.00  0.00    -0.385 OA
ATOM     19  H   UNL     1       2.550 -12.446  -0.078  1.00  0.00    +0.211 HD
ENDBRANCH  15  18
ENDBRANCH   7   8
ENDBRANCH   1   7
BRANCH   2  20
ATOM     20  O   UNL     1       3.575  -6.782  -3.625  1.00  0.00    -0.385 OA
ATOM     21  H   UNL     1       3.853  -7.485  -4.244  1.00  0.00    +0.211 HD
ENDBRANCH   2  20
BRANCH   3  22
ATOM     22  O   UNL     1       2.243  -4.525  -4.546  1.00  0.00    -0.387 OA
ATOM     23  H   UNL     1       2.603  -4.538  -3.634  1.00  0.00    +0.211 HD
ENDBRANCH   3  22
BRANCH   5  24
ATOM     24  C   UNL     1      -1.177  -7.090  -2.877  1.00  0.00    +0.220 C 
BRANCH  24  25
ATOM     25  O   UNL     1      -2.468  -6.487  -2.926  1.00  0.00    -0.245 OA
BRANCH  25  26
ATOM     26  S   UNL     1      -2.933  -5.590  -1.655  1.00  0.00    +0.397 S 
ATOM     27  O   UNL     1      -3.572  -6.429  -0.666  1.00  0.00    -0.169 OA
ATOM     28  O   UNL     1      -3.549  -4.381  -2.153  1.00  0.00    -0.169 OA
BRANCH  26  29
ATOM     29  O   UNL     1      -1.520  -5.111  -1.050  1.00  0.00    -0.264 OA
ATOM     30  H   UNL     1      -1.187  -5.841  -0.490  1.00  0.00    +0.236 HD
ENDBRANCH  26  29
ENDBRANCH  25  26
ENDBRANCH  24  25
ENDBRANCH   5  24
BRANCH   4  31
ATOM     31  O   UNL     1      -0.214  -4.666  -3.731  1.00  0.00    -0.387 OA
ATOM     32  H   UNL     1       0.625  -4.176  -3.579  1.00  0.00    +0.211 HD
ENDBRANCH   4  31
TORSDOF 11
ENDMDL
