MODEL 1
REMARK VINA RESULT:    -7.160      0.000      0.000
REMARK INTER + INTRA:         -11.787
REMARK INTER:                 -10.508
REMARK INTRA:                  -1.279
REMARK UNBOUND:                -1.279
REMARK SMILES O=S(=O)(O)OC[C@@H]1O[C@H](O[C@H]2[C@@H]3OC[C@H]2O[C@@H](O)[C@H]3O)[C@@H](O)[C@H](O)[C@@H]1O
REMARK SMILES IDX 9 1 21 2 23 3 25 4 7 5 8 6 10 7 11 8 14 9 15 10 13 11 16 12
REMARK SMILES IDX 12 13 17 14 19 15 18 16 20 18 22 20 24 22 6 24 5 25 2 26
REMARK SMILES IDX 1 27 3 28 4 29 26 31
REMARK H PARENT 18 17 20 19 22 21 24 23 4 30 26 32
ROOT
ATOM      1  C   UNL     1       9.080  -6.618  -5.481  1.00  0.00    +0.282 C 
ATOM      2  C   UNL     1       8.136  -7.532  -4.677  1.00  0.00    +0.202 C 
ATOM      3  C   UNL     1       8.268  -7.173  -3.206  1.00  0.00    +0.179 C 
ATOM      4  C   UNL     1       7.774  -5.740  -2.988  1.00  0.00    +0.177 C 
ATOM      5  C   UNL     1       8.133  -4.794  -4.159  1.00  0.00    +0.180 C 
ATOM      6  O   UNL     1       9.221  -5.299  -4.957  1.00  0.00    -0.341 OA
ENDROOT
BRANCH   1   7
ATOM      7  O   UNL     1       8.652  -6.638  -6.846  1.00  0.00    -0.341 OA
BRANCH   7   8
ATOM      8  C   UNL     1       9.653  -6.183  -7.750  1.00  0.00    +0.184 C 
ATOM      9  C   UNL     1      10.540  -5.900  -9.901  1.00  0.00    +0.195 C 
ATOM     10  C   UNL     1       9.192  -6.044  -9.192  1.00  0.00    +0.179 C 
ATOM     11  O   UNL     1      11.477  -6.701  -9.135  1.00  0.00    -0.370 OA
ATOM     12  O   UNL     1       8.456  -7.211  -9.599  1.00  0.00    -0.342 OA
ATOM     13  C   UNL     1      10.745  -7.218  -7.995  1.00  0.00    +0.184 C 
ATOM     14  C   UNL     1       9.157  -8.449  -9.543  1.00  0.00    +0.279 C 
ATOM     15  C   UNL     1      10.118  -8.576  -8.340  1.00  0.00    +0.202 C 
BRANCH  14  16
ATOM     16  O   UNL     1       9.867  -8.629 -10.766  1.00  0.00    -0.366 OA
ATOM     17  H   UNL     1       9.577  -7.888 -11.328  1.00  0.00    +0.213 HD
ENDBRANCH  14  16
BRANCH  15  18
ATOM     18  O   UNL     1      11.142  -9.544  -8.605  1.00  0.00    -0.385 OA
ATOM     19  H   UNL     1      11.932  -9.000  -8.817  1.00  0.00    +0.211 HD
ENDBRANCH  15  18
ENDBRANCH   7   8
ENDBRANCH   1   7
BRANCH   2  20
ATOM     20  O   UNL     1       8.468  -8.919  -4.856  1.00  0.00    -0.385 OA
ATOM     21  H   UNL     1       7.734  -9.309  -5.370  1.00  0.00    +0.211 HD
ENDBRANCH   2  20
BRANCH   3  22
ATOM     22  O   UNL     1       7.488  -8.071  -2.399  1.00  0.00    -0.387 OA
ATOM     23  H   UNL     1       7.599  -8.949  -2.822  1.00  0.00    +0.211 HD
ENDBRANCH   3  22
BRANCH   5  24
ATOM     24  C   UNL     1       6.942  -4.350  -5.028  1.00  0.00    +0.220 C 
BRANCH  24  25
ATOM     25  O   UNL     1       6.354  -3.196  -4.432  1.00  0.00    -0.245 OA
BRANCH  25  26
ATOM     26  S   UNL     1       4.791  -3.280  -4.002  1.00  0.00    +0.397 S 
ATOM     27  O   UNL     1       4.043  -2.225  -4.648  1.00  0.00    -0.169 OA
ATOM     28  O   UNL     1       4.724  -3.508  -2.576  1.00  0.00    -0.169 OA
BRANCH  26  29
ATOM     29  O   UNL     1       4.337  -4.676  -4.662  1.00  0.00    -0.264 OA
ATOM     30  H   UNL     1       3.433  -4.864  -4.338  1.00  0.00    +0.236 HD
ENDBRANCH  26  29
ENDBRANCH  25  26
ENDBRANCH  24  25
ENDBRANCH   5  24
BRANCH   4  31
ATOM     31  O   UNL     1       6.363  -5.763  -2.747  1.00  0.00    -0.387 OA
ATOM     32  H   UNL     1       5.964  -6.010  -3.612  1.00  0.00    +0.211 HD
ENDBRANCH   4  31
TORSDOF 11
ENDMDL
MODEL 2
REMARK VINA RESULT:    -6.999      3.085      6.543
REMARK INTER + INTRA:         -11.550
REMARK INTER:                 -10.415
REMARK INTRA:                  -1.136
REMARK UNBOUND:                -1.279
REMARK SMILES O=S(=O)(O)OC[C@@H]1O[C@H](O[C@H]2[C@@H]3OC[C@H]2O[C@@H](O)[C@H]3O)[C@@H](O)[C@H](O)[C@@H]1O
REMARK SMILES IDX 9 1 21 2 23 3 25 4 7 5 8 6 10 7 11 8 14 9 15 10 13 11 16 12
REMARK SMILES IDX 12 13 17 14 19 15 18 16 20 18 22 20 24 22 6 24 5 25 2 26
REMARK SMILES IDX 1 27 3 28 4 29 26 31
REMARK H PARENT 18 17 20 19 22 21 24 23 4 30 26 32
ROOT
ATOM      1  C   UNL     1       7.130  -4.598  -4.947  1.00  0.00    +0.282 C 
ATOM      2  C   UNL     1       8.451  -4.724  -4.163  1.00  0.00    +0.202 C 
ATOM      3  C   UNL     1       8.379  -5.980  -3.312  1.00  0.00    +0.179 C 
ATOM      4  C   UNL     1       8.299  -7.206  -4.225  1.00  0.00    +0.177 C 
ATOM      5  C   UNL     1       7.452  -6.958  -5.496  1.00  0.00    +0.180 C 
ATOM      6  O   UNL     1       6.555  -5.841  -5.347  1.00  0.00    -0.341 OA
ENDROOT
BRANCH   1   7
ATOM      7  O   UNL     1       7.354  -3.705  -6.042  1.00  0.00    -0.341 OA
BRANCH   7   8
ATOM      8  C   UNL     1       6.228  -2.882  -6.326  1.00  0.00    +0.184 C 
ATOM      9  C   UNL     1       5.148  -1.170  -7.508  1.00  0.00    +0.195 C 
ATOM     10  C   UNL     1       6.265  -2.200  -7.685  1.00  0.00    +0.179 C 
ATOM     11  O   UNL     1       5.174  -0.794  -6.107  1.00  0.00    -0.370 OA
ATOM     12  O   UNL     1       7.556  -1.607  -7.914  1.00  0.00    -0.342 OA
ATOM     13  C   UNL     1       6.189  -1.617  -5.476  1.00  0.00    +0.184 C 
ATOM     14  C   UNL     1       7.968  -0.614  -6.981  1.00  0.00    +0.279 C 
ATOM     15  C   UNL     1       7.549  -0.906  -5.523  1.00  0.00    +0.202 C 
BRANCH  14  16
ATOM     16  O   UNL     1       7.458   0.648  -7.401  1.00  0.00    -0.366 OA
ATOM     17  H   UNL     1       6.618   0.437  -7.845  1.00  0.00    +0.213 HD
ENDBRANCH  14  16
BRANCH  15  18
ATOM     18  O   UNL     1       7.506   0.302  -4.753  1.00  0.00    -0.385 OA
ATOM     19  H   UNL     1       7.150   0.969  -5.379  1.00  0.00    +0.211 HD
ENDBRANCH  15  18
ENDBRANCH   7   8
ENDBRANCH   1   7
BRANCH   2  20
ATOM     20  O   UNL     1       8.666  -3.586  -3.311  1.00  0.00    -0.385 OA
ATOM     21  H   UNL     1       7.986  -2.930  -3.560  1.00  0.00    +0.211 HD
ENDBRANCH   2  20
BRANCH   3  22
ATOM     22  O   UNL     1       9.544  -6.086  -2.476  1.00  0.00    -0.387 OA
ATOM     23  H   UNL     1       9.192  -6.160  -1.564  1.00  0.00    +0.211 HD
ENDBRANCH   3  22
BRANCH   5  24
ATOM     24  C   UNL     1       8.254  -6.878  -6.808  1.00  0.00    +0.220 C 
BRANCH  24  25
ATOM     25  O   UNL     1       8.094  -8.108  -7.511  1.00  0.00    -0.245 OA
BRANCH  25  26
ATOM     26  S   UNL     1       9.242  -9.240  -7.326  1.00  0.00    +0.397 S 
ATOM     27  O   UNL     1       8.818 -10.219  -6.351  1.00  0.00    -0.169 OA
ATOM     28  O   UNL     1      10.524  -8.578  -7.246  1.00  0.00    -0.169 OA
BRANCH  26  29
ATOM     29  O   UNL     1       9.240  -9.956  -8.769  1.00  0.00    -0.264 OA
ATOM     30  H   UNL     1       8.345 -10.330  -8.900  1.00  0.00    +0.236 HD
ENDBRANCH  26  29
ENDBRANCH  25  26
ENDBRANCH  24  25
ENDBRANCH   5  24
BRANCH   4  31
ATOM     31  O   UNL     1       9.626  -7.633  -4.554  1.00  0.00    -0.387 OA
ATOM     32  H   UNL     1       9.705  -7.480  -5.523  1.00  0.00    +0.211 HD
ENDBRANCH   4  31
TORSDOF 11
ENDMDL
MODEL 3
REMARK VINA RESULT:    -6.929      1.921      2.574
REMARK INTER + INTRA:         -11.449
REMARK INTER:                 -10.216
REMARK INTRA:                  -1.233
REMARK UNBOUND:                -1.279
REMARK SMILES O=S(=O)(O)OC[C@@H]1O[C@H](O[C@H]2[C@@H]3OC[C@H]2O[C@@H](O)[C@H]3O)[C@@H](O)[C@H](O)[C@@H]1O
REMARK SMILES IDX 9 1 21 2 23 3 25 4 7 5 8 6 10 7 11 8 14 9 15 10 13 11 16 12
REMARK SMILES IDX 12 13 17 14 19 15 18 16 20 18 22 20 24 22 6 24 5 25 2 26
REMARK SMILES IDX 1 27 3 28 4 29 26 31
REMARK H PARENT 18 17 20 19 22 21 24 23 4 30 26 32
ROOT
ATOM      1  C   UNL     1       8.620  -5.148  -5.495  1.00  0.00    +0.282 C 
ATOM      2  C   UNL     1       7.329  -5.592  -4.780  1.00  0.00    +0.202 C 
ATOM      3  C   UNL     1       7.149  -4.726  -3.545  1.00  0.00    +0.179 C 
ATOM      4  C   UNL     1       6.927  -3.273  -3.975  1.00  0.00    +0.177 C 
ATOM      5  C   UNL     1       7.768  -2.875  -5.212  1.00  0.00    +0.180 C 
ATOM      6  O   UNL     1       8.894  -3.751  -5.414  1.00  0.00    -0.341 OA
ENDROOT
BRANCH   1   7
ATOM      7  O   UNL     1       8.564  -5.633  -6.839  1.00  0.00    -0.341 OA
BRANCH   7   8
ATOM      8  C   UNL     1       9.819  -6.118  -7.307  1.00  0.00    +0.184 C 
ATOM      9  C   UNL     1      11.243  -6.921  -8.987  1.00  0.00    +0.195 C 
ATOM     10  C   UNL     1      10.015  -6.026  -8.813  1.00  0.00    +0.179 C 
ATOM     11  O   UNL     1      11.131  -7.949  -7.970  1.00  0.00    -0.370 OA
ATOM     12  O   UNL     1       8.850  -6.516  -9.502  1.00  0.00    -0.342 OA
ATOM     13  C   UNL     1       9.951  -7.631  -7.187  1.00  0.00    +0.184 C 
ATOM     14  C   UNL     1       8.491  -7.870  -9.248  1.00  0.00    +0.279 C 
ATOM     15  C   UNL     1       8.717  -8.320  -7.787  1.00  0.00    +0.202 C 
BRANCH  14  16
ATOM     16  O   UNL     1       9.215  -8.710 -10.143  1.00  0.00    -0.366 OA
ATOM     17  H   UNL     1      10.044  -8.228 -10.315  1.00  0.00    +0.213 HD
ENDBRANCH  14  16
BRANCH  15  18
ATOM     18  O   UNL     1       8.854  -9.744  -7.707  1.00  0.00    -0.385 OA
ATOM     19  H   UNL     1       8.982  -9.917  -6.750  1.00  0.00    +0.211 HD
ENDBRANCH  15  18
ENDBRANCH   7   8
ENDBRANCH   1   7
BRANCH   2  20
ATOM     20  O   UNL     1       7.397  -6.973  -4.382  1.00  0.00    -0.385 OA
ATOM     21  H   UNL     1       7.146  -7.494  -5.170  1.00  0.00    +0.211 HD
ENDBRANCH   2  20
BRANCH   3  22
ATOM     22  O   UNL     1       6.015  -5.171  -2.781  1.00  0.00    -0.387 OA
ATOM     23  H   UNL     1       5.999  -6.144  -2.902  1.00  0.00    +0.211 HD
ENDBRANCH   3  22
BRANCH   5  24
ATOM     24  C   UNL     1       6.963  -2.668  -6.508  1.00  0.00    +0.220 C 
BRANCH  24  25
ATOM     25  O   UNL     1       6.898  -1.270  -6.781  1.00  0.00    -0.245 OA
BRANCH  25  26
ATOM     26  S   UNL     1       5.519  -0.492  -6.422  1.00  0.00    +0.397 S 
ATOM     27  O   UNL     1       4.432  -1.439  -6.315  1.00  0.00    -0.169 OA
ATOM     28  O   UNL     1       5.434   0.688  -7.253  1.00  0.00    -0.169 OA
BRANCH  26  29
ATOM     29  O   UNL     1       5.827   0.068  -4.945  1.00  0.00    -0.264 OA
ATOM     30  H   UNL     1       6.486  -0.534  -4.543  1.00  0.00    +0.236 HD
ENDBRANCH  26  29
ENDBRANCH  25  26
ENDBRANCH  24  25
ENDBRANCH   5  24
BRANCH   4  31
ATOM     31  O   UNL     1       5.530  -3.058  -4.200  1.00  0.00    -0.387 OA
ATOM     32  H   UNL     1       5.406  -3.200  -5.166  1.00  0.00    +0.211 HD
ENDBRANCH   4  31
TORSDOF 11
ENDMDL
MODEL 4
REMARK VINA RESULT:    -6.762     27.520     29.874
REMARK INTER + INTRA:         -11.204
REMARK INTER:                  -9.679
REMARK INTRA:                  -1.525
REMARK UNBOUND:                -1.279
REMARK SMILES O=S(=O)(O)OC[C@@H]1O[C@H](O[C@H]2[C@@H]3OC[C@H]2O[C@@H](O)[C@H]3O)[C@@H](O)[C@H](O)[C@@H]1O
REMARK SMILES IDX 9 1 21 2 23 3 25 4 7 5 8 6 10 7 11 8 14 9 15 10 13 11 16 12
REMARK SMILES IDX 12 13 17 14 19 15 18 16 20 18 22 20 24 22 6 24 5 25 2 26
REMARK SMILES IDX 1 27 3 28 4 29 26 31
REMARK H PARENT 18 17 20 19 22 21 24 23 4 30 26 32
ROOT
ATOM      1  C   UNL     1     -17.022  -6.110   9.209  1.00  0.00    +0.282 C 
ATOM      2  C   UNL     1     -15.752  -6.748   8.615  1.00  0.00    +0.202 C 
ATOM      3  C   UNL     1     -16.160  -7.597   7.424  1.00  0.00    +0.179 C 
ATOM      4  C   UNL     1     -16.740  -6.692   6.333  1.00  0.00    +0.177 C 
ATOM      5  C   UNL     1     -17.574  -5.520   6.903  1.00  0.00    +0.180 C 
ATOM      6  O   UNL     1     -18.021  -5.768   8.249  1.00  0.00    -0.341 OA
ENDROOT
BRANCH   1   7
ATOM      7  O   UNL     1     -16.619  -5.002  10.019  1.00  0.00    -0.341 OA
BRANCH   7   8
ATOM      8  C   UNL     1     -17.164  -5.046  11.333  1.00  0.00    +0.184 C 
ATOM      9  C   UNL     1     -17.411  -4.218  13.512  1.00  0.00    +0.195 C 
ATOM     10  C   UNL     1     -17.091  -3.733  12.097  1.00  0.00    +0.179 C 
ATOM     11  O   UNL     1     -16.861  -5.557  13.605  1.00  0.00    -0.370 OA
ATOM     12  O   UNL     1     -15.779  -3.154  11.976  1.00  0.00    -0.342 OA
ATOM     13  C   UNL     1     -16.323  -5.877  12.296  1.00  0.00    +0.184 C 
ATOM     14  C   UNL     1     -14.696  -3.938  12.465  1.00  0.00    +0.279 C 
ATOM     15  C   UNL     1     -14.850  -5.454  12.211  1.00  0.00    +0.202 C 
BRANCH  14  16
ATOM     16  O   UNL     1     -14.539  -3.682  13.858  1.00  0.00    -0.366 OA
ATOM     17  H   UNL     1     -15.444  -3.716  14.217  1.00  0.00    +0.213 HD
ENDBRANCH  14  16
BRANCH  15  18
ATOM     18  O   UNL     1     -14.062  -6.210  13.141  1.00  0.00    -0.385 OA
ATOM     19  H   UNL     1     -14.550  -7.056  13.232  1.00  0.00    +0.211 HD
ENDBRANCH  15  18
ENDBRANCH   7   8
ENDBRANCH   1   7
BRANCH   2  20
ATOM     20  O   UNL     1     -15.081  -7.578   9.579  1.00  0.00    -0.385 OA
ATOM     21  H   UNL     1     -14.308  -7.958   9.118  1.00  0.00    +0.211 HD
ENDBRANCH   2  20
BRANCH   3  22
ATOM     22  O   UNL     1     -15.023  -8.303   6.898  1.00  0.00    -0.387 OA
ATOM     23  H   UNL     1     -15.309  -8.614   6.013  1.00  0.00    +0.211 HD
ENDBRANCH   3  22
BRANCH   5  24
ATOM     24  C   UNL     1     -16.927  -4.130   6.762  1.00  0.00    +0.220 C 
BRANCH  24  25
ATOM     25  O   UNL     1     -17.948  -3.141   6.874  1.00  0.00    -0.245 OA
BRANCH  25  26
ATOM     26  S   UNL     1     -17.901  -2.147   8.157  1.00  0.00    +0.397 S 
ATOM     27  O   UNL     1     -18.761  -2.651   9.204  1.00  0.00    -0.169 OA
ATOM     28  O   UNL     1     -17.986  -0.786   7.679  1.00  0.00    -0.169 OA
BRANCH  26  29
ATOM     29  O   UNL     1     -16.379  -2.314   8.653  1.00  0.00    -0.264 OA
ATOM     30  H   UNL     1     -15.809  -2.211   7.863  1.00  0.00    +0.236 HD
ENDBRANCH  26  29
ENDBRANCH  25  26
ENDBRANCH  24  25
ENDBRANCH   5  24
BRANCH   4  31
ATOM     31  O   UNL     1     -15.676  -6.221   5.499  1.00  0.00    -0.387 OA
ATOM     32  H   UNL     1     -15.577  -5.270   5.731  1.00  0.00    +0.211 HD
ENDBRANCH   4  31
TORSDOF 11
ENDMDL
MODEL 5
REMARK VINA RESULT:    -6.620      4.399      7.299
REMARK INTER + INTRA:         -10.995
REMARK INTER:                 -10.116
REMARK INTRA:                  -0.879
REMARK UNBOUND:                -1.279
REMARK SMILES O=S(=O)(O)OC[C@@H]1O[C@H](O[C@H]2[C@@H]3OC[C@H]2O[C@@H](O)[C@H]3O)[C@@H](O)[C@H](O)[C@@H]1O
REMARK SMILES IDX 9 1 21 2 23 3 25 4 7 5 8 6 10 7 11 8 14 9 15 10 13 11 16 12
REMARK SMILES IDX 12 13 17 14 19 15 18 16 20 18 22 20 24 22 6 24 5 25 2 26
REMARK SMILES IDX 1 27 3 28 4 29 26 31
REMARK H PARENT 18 17 20 19 22 21 24 23 4 30 26 32
ROOT
ATOM      1  C   UNL     1       6.278  -1.702  -6.389  1.00  0.00    +0.282 C 
ATOM      2  C   UNL     1       7.056  -1.103  -5.201  1.00  0.00    +0.202 C 
ATOM      3  C   UNL     1       6.651  -1.852  -3.943  1.00  0.00    +0.179 C 
ATOM      4  C   UNL     1       7.094  -3.313  -4.058  1.00  0.00    +0.177 C 
ATOM      5  C   UNL     1       6.959  -3.872  -5.495  1.00  0.00    +0.180 C 
ATOM      6  O   UNL     1       6.040  -3.106  -6.297  1.00  0.00    -0.341 OA
ENDROOT
BRANCH   1   7
ATOM      7  O   UNL     1       6.954  -1.323  -7.591  1.00  0.00    -0.341 OA
BRANCH   7   8
ATOM      8  C   UNL     1       6.097  -1.307  -8.728  1.00  0.00    +0.184 C 
ATOM      9  C   UNL     1       5.443  -0.497 -10.828  1.00  0.00    +0.195 C 
ATOM     10  C   UNL     1       6.697  -0.659  -9.967  1.00  0.00    +0.179 C 
ATOM     11  O   UNL     1       4.354  -0.258  -9.900  1.00  0.00    -0.370 OA
ATOM     12  O   UNL     1       7.321   0.592  -9.627  1.00  0.00    -0.342 OA
ATOM     13  C   UNL     1       4.916  -0.358  -8.566  1.00  0.00    +0.184 C 
ATOM     14  C   UNL     1       6.475   1.583  -9.052  1.00  0.00    +0.279 C 
ATOM     15  C   UNL     1       5.403   1.018  -8.093  1.00  0.00    +0.202 C 
BRANCH  14  16
ATOM     16  O   UNL     1       5.859   2.324 -10.103  1.00  0.00    -0.366 OA
ATOM     17  H   UNL     1       5.529   1.645 -10.719  1.00  0.00    +0.213 HD
ENDBRANCH  14  16
BRANCH  15  18
ATOM     18  O   UNL     1       4.298   1.923  -7.973  1.00  0.00    -0.385 OA
ATOM     19  H   UNL     1       4.080   2.155  -8.902  1.00  0.00    +0.211 HD
ENDBRANCH  15  18
ENDBRANCH   7   8
ENDBRANCH   1   7
BRANCH   2  20
ATOM     20  O   UNL     1       6.765   0.295  -5.034  1.00  0.00    -0.385 OA
ATOM     21  H   UNL     1       7.209   0.566  -4.206  1.00  0.00    +0.211 HD
ENDBRANCH   2  20
BRANCH   3  22
ATOM     22  O   UNL     1       7.267  -1.260  -2.787  1.00  0.00    -0.387 OA
ATOM     23  H   UNL     1       7.401  -0.319  -3.028  1.00  0.00    +0.211 HD
ENDBRANCH   3  22
BRANCH   5  24
ATOM     24  C   UNL     1       8.290  -4.119  -6.227  1.00  0.00    +0.220 C 
BRANCH  24  25
ATOM     25  O   UNL     1       8.916  -5.265  -5.653  1.00  0.00    -0.245 OA
BRANCH  25  26
ATOM     26  S   UNL     1       8.617  -6.709  -6.331  1.00  0.00    +0.397 S 
ATOM     27  O   UNL     1       8.620  -6.589  -7.771  1.00  0.00    -0.169 OA
ATOM     28  O   UNL     1       7.529  -7.332  -5.611  1.00  0.00    -0.169 OA
BRANCH  26  29
ATOM     29  O   UNL     1       9.923  -7.552  -5.909  1.00  0.00    -0.264 OA
ATOM     30  H   UNL     1       9.912  -7.624  -4.933  1.00  0.00    +0.236 HD
ENDBRANCH  26  29
ENDBRANCH  25  26
ENDBRANCH  24  25
ENDBRANCH   5  24
BRANCH   4  31
ATOM     31  O   UNL     1       8.436  -3.436  -3.573  1.00  0.00    -0.387 OA
ATOM     32  H   UNL     1       8.456  -4.301  -3.106  1.00  0.00    +0.211 HD
ENDBRANCH   4  31
TORSDOF 11
ENDMDL
MODEL 6
REMARK VINA RESULT:    -6.602      2.209      6.756
REMARK INTER + INTRA:         -10.968
REMARK INTER:                  -9.972
REMARK INTRA:                  -0.996
REMARK UNBOUND:                -1.279
REMARK SMILES O=S(=O)(O)OC[C@@H]1O[C@H](O[C@H]2[C@@H]3OC[C@H]2O[C@@H](O)[C@H]3O)[C@@H](O)[C@H](O)[C@@H]1O
REMARK SMILES IDX 9 1 21 2 23 3 25 4 7 5 8 6 10 7 11 8 14 9 15 10 13 11 16 12
REMARK SMILES IDX 12 13 17 14 19 15 18 16 20 18 22 20 24 22 6 24 5 25 2 26
REMARK SMILES IDX 1 27 3 28 4 29 26 31
REMARK H PARENT 18 17 20 19 22 21 24 23 4 30 26 32
ROOT
ATOM      1  C   UNL     1       8.603  -4.191  -6.815  1.00  0.00    +0.282 C 
ATOM      2  C   UNL     1       8.588  -4.679  -8.276  1.00  0.00    +0.202 C 
ATOM      3  C   UNL     1       9.862  -5.469  -8.525  1.00  0.00    +0.179 C 
ATOM      4  C   UNL     1       9.858  -6.725  -7.650  1.00  0.00    +0.177 C 
ATOM      5  C   UNL     1       9.232  -6.485  -6.255  1.00  0.00    +0.180 C 
ATOM      6  O   UNL     1       9.217  -5.091  -5.893  1.00  0.00    -0.341 OA
ENDROOT
BRANCH   1   7
ATOM      7  O   UNL     1       7.263  -3.845  -6.455  1.00  0.00    -0.341 OA
BRANCH   7   8
ATOM      8  C   UNL     1       7.189  -2.676  -5.645  1.00  0.00    +0.184 C 
ATOM      9  C   UNL     1       7.093  -1.584  -3.573  1.00  0.00    +0.195 C 
ATOM     10  C   UNL     1       7.622  -2.875  -4.200  1.00  0.00    +0.179 C 
ATOM     11  O   UNL     1       5.886  -1.253  -4.306  1.00  0.00    -0.370 OA
ATOM     12  O   UNL     1       7.019  -4.062  -3.654  1.00  0.00    -0.342 OA
ATOM     13  C   UNL     1       5.756  -2.243  -5.359  1.00  0.00    +0.184 C 
ATOM     14  C   UNL     1       5.596  -4.093  -3.632  1.00  0.00    +0.279 C 
ATOM     15  C   UNL     1       4.931  -3.438  -4.863  1.00  0.00    +0.202 C 
BRANCH  14  16
ATOM     16  O   UNL     1       5.144  -3.468  -2.433  1.00  0.00    -0.366 OA
ATOM     17  H   UNL     1       4.389  -2.920  -2.712  1.00  0.00    +0.213 HD
ENDBRANCH  14  16
BRANCH  15  18
ATOM     18  O   UNL     1       3.591  -3.026  -4.560  1.00  0.00    -0.385 OA
ATOM     19  H   UNL     1       3.222  -2.763  -5.430  1.00  0.00    +0.211 HD
ENDBRANCH  15  18
ENDBRANCH   7   8
ENDBRANCH   1   7
BRANCH   2  20
ATOM     20  O   UNL     1       8.527  -3.577  -9.197  1.00  0.00    -0.385 OA
ATOM     21  H   UNL     1       8.449  -3.973 -10.088  1.00  0.00    +0.211 HD
ENDBRANCH   2  20
BRANCH   3  22
ATOM     22  O   UNL     1       9.950  -5.856  -9.907  1.00  0.00    -0.387 OA
ATOM     23  H   UNL     1       9.560  -5.105 -10.403  1.00  0.00    +0.211 HD
ENDBRANCH   3  22
BRANCH   5  24
ATOM     24  C   UNL     1       7.862  -7.150  -6.031  1.00  0.00    +0.220 C 
BRANCH  24  25
ATOM     25  O   UNL     1       8.076  -8.485  -5.578  1.00  0.00    -0.245 OA
BRANCH  25  26
ATOM     26  S   UNL     1       8.275  -8.721  -3.984  1.00  0.00    +0.397 S 
ATOM     27  O   UNL     1       7.837 -10.050  -3.623  1.00  0.00    -0.169 OA
ATOM     28  O   UNL     1       7.811  -7.541  -3.290  1.00  0.00    -0.169 OA
BRANCH  26  29
ATOM     29  O   UNL     1       9.878  -8.678  -3.839  1.00  0.00    -0.264 OA
ATOM     30  H   UNL     1      10.084  -8.879  -2.903  1.00  0.00    +0.236 HD
ENDBRANCH  26  29
ENDBRANCH  25  26
ENDBRANCH  24  25
ENDBRANCH   5  24
BRANCH   4  31
ATOM     31  O   UNL     1       9.191  -7.782  -8.348  1.00  0.00    -0.387 OA
ATOM     32  H   UNL     1       8.931  -8.421  -7.647  1.00  0.00    +0.211 HD
ENDBRANCH   4  31
TORSDOF 11
ENDMDL
MODEL 7
REMARK VINA RESULT:    -6.545      5.823      8.294
REMARK INTER + INTRA:         -10.885
REMARK INTER:                  -9.676
REMARK INTRA:                  -1.209
REMARK UNBOUND:                -1.279
REMARK SMILES O=S(=O)(O)OC[C@@H]1O[C@H](O[C@H]2[C@@H]3OC[C@H]2O[C@@H](O)[C@H]3O)[C@@H](O)[C@H](O)[C@@H]1O
REMARK SMILES IDX 9 1 21 2 23 3 25 4 7 5 8 6 10 7 11 8 14 9 15 10 13 11 16 12
REMARK SMILES IDX 12 13 17 14 19 15 18 16 20 18 22 20 24 22 6 24 5 25 2 26
REMARK SMILES IDX 1 27 3 28 4 29 26 31
REMARK H PARENT 18 17 20 19 22 21 24 23 4 30 26 32
ROOT
ATOM      1  C   UNL     1       5.878  -0.448  -8.251  1.00  0.00    +0.282 C 
ATOM      2  C   UNL     1       5.308   0.219  -6.984  1.00  0.00    +0.202 C 
ATOM      3  C   UNL     1       4.319  -0.742  -6.346  1.00  0.00    +0.179 C 
ATOM      4  C   UNL     1       5.063  -1.995  -5.877  1.00  0.00    +0.177 C 
ATOM      5  C   UNL     1       6.201  -2.416  -6.838  1.00  0.00    +0.180 C 
ATOM      6  O   UNL     1       6.036  -1.863  -8.158  1.00  0.00    -0.341 OA
ENDROOT
BRANCH   1   7
ATOM      7  O   UNL     1       7.088   0.232  -8.597  1.00  0.00    -0.341 OA
BRANCH   7   8
ATOM      8  C   UNL     1       7.080   0.734  -9.929  1.00  0.00    +0.184 C 
ATOM      9  C   UNL     1       8.058   1.880 -11.725  1.00  0.00    +0.195 C 
ATOM     10  C   UNL     1       8.454   1.069 -10.490  1.00  0.00    +0.179 C 
ATOM     11  O   UNL     1       6.836   2.575 -11.368  1.00  0.00    -0.370 OA
ATOM     12  O   UNL     1       9.217   1.825  -9.533  1.00  0.00    -0.342 OA
ATOM     13  C   UNL     1       6.485   2.134 -10.031  1.00  0.00    +0.184 C 
ATOM     14  C   UNL     1       8.661   3.070  -9.125  1.00  0.00    +0.279 C 
ATOM     15  C   UNL     1       7.123   3.058  -8.984  1.00  0.00    +0.202 C 
BRANCH  14  16
ATOM     16  O   UNL     1       9.067   4.076 -10.049  1.00  0.00    -0.366 OA
ATOM     17  H   UNL     1       8.737   4.908  -9.665  1.00  0.00    +0.213 HD
ENDBRANCH  14  16
BRANCH  15  18
ATOM     18  O   UNL     1       6.589   4.384  -9.100  1.00  0.00    -0.385 OA
ATOM     19  H   UNL     1       6.526   4.695  -8.172  1.00  0.00    +0.211 HD
ENDBRANCH  15  18
ENDBRANCH   7   8
ENDBRANCH   1   7
BRANCH   2  20
ATOM     20  O   UNL     1       4.635   1.451  -7.297  1.00  0.00    -0.385 OA
ATOM     21  H   UNL     1       3.716   1.345  -6.979  1.00  0.00    +0.211 HD
ENDBRANCH   2  20
BRANCH   3  22
ATOM     22  O   UNL     1       3.676  -0.124  -5.218  1.00  0.00    -0.387 OA
ATOM     23  H   UNL     1       2.766   0.071  -5.526  1.00  0.00    +0.211 HD
ENDBRANCH   3  22
BRANCH   5  24
ATOM     24  C   UNL     1       7.626  -2.195  -6.298  1.00  0.00    +0.220 C 
BRANCH  24  25
ATOM     25  O   UNL     1       8.154  -3.454  -5.886  1.00  0.00    -0.245 OA
BRANCH  25  26
ATOM     26  S   UNL     1       8.159  -3.790  -4.298  1.00  0.00    +0.397 S 
ATOM     27  O   UNL     1       9.441  -4.337  -3.914  1.00  0.00    -0.169 OA
ATOM     28  O   UNL     1       6.913  -4.442  -3.968  1.00  0.00    -0.169 OA
BRANCH  26  29
ATOM     29  O   UNL     1       8.039  -2.323  -3.646  1.00  0.00    -0.264 OA
ATOM     30  H   UNL     1       8.847  -2.181  -3.112  1.00  0.00    +0.236 HD
ENDBRANCH  26  29
ENDBRANCH  25  26
ENDBRANCH  24  25
ENDBRANCH   5  24
BRANCH   4  31
ATOM     31  O   UNL     1       5.552  -1.781  -4.548  1.00  0.00    -0.387 OA
ATOM     32  H   UNL     1       5.625  -2.682  -4.159  1.00  0.00    +0.211 HD
ENDBRANCH   4  31
TORSDOF 11
ENDMDL
MODEL 8
REMARK VINA RESULT:    -6.519      4.138      7.254
REMARK INTER + INTRA:         -10.847
REMARK INTER:                  -9.465
REMARK INTRA:                  -1.382
REMARK UNBOUND:                -1.279
REMARK SMILES O=S(=O)(O)OC[C@@H]1O[C@H](O[C@H]2[C@@H]3OC[C@H]2O[C@@H](O)[C@H]3O)[C@@H](O)[C@H](O)[C@@H]1O
REMARK SMILES IDX 9 1 21 2 23 3 25 4 7 5 8 6 10 7 11 8 14 9 15 10 13 11 16 12
REMARK SMILES IDX 12 13 17 14 19 15 18 16 20 18 22 20 24 22 6 24 5 25 2 26
REMARK SMILES IDX 1 27 3 28 4 29 26 31
REMARK H PARENT 18 17 20 19 22 21 24 23 4 30 26 32
ROOT
ATOM      1  C   UNL     1       6.168  -1.091  -6.307  1.00  0.00    +0.282 C 
ATOM      2  C   UNL     1       4.721  -1.059  -6.836  1.00  0.00    +0.202 C 
ATOM      3  C   UNL     1       4.337   0.390  -7.081  1.00  0.00    +0.179 C 
ATOM      4  C   UNL     1       5.217   0.966  -8.194  1.00  0.00    +0.177 C 
ATOM      5  C   UNL     1       6.671   0.438  -8.146  1.00  0.00    +0.180 C 
ATOM      6  O   UNL     1       7.022  -0.086  -6.851  1.00  0.00    -0.341 OA
ENDROOT
BRANCH   1   7
ATOM      7  O   UNL     1       6.672  -2.417  -6.491  1.00  0.00    -0.341 OA
BRANCH   7   8
ATOM      8  C   UNL     1       7.755  -2.725  -5.620  1.00  0.00    +0.184 C 
ATOM      9  C   UNL     1       9.298  -4.207  -4.664  1.00  0.00    +0.195 C 
ATOM     10  C   UNL     1       8.485  -4.019  -5.945  1.00  0.00    +0.179 C 
ATOM     11  O   UNL     1       8.484  -3.662  -3.594  1.00  0.00    -0.370 OA
ATOM     12  O   UNL     1       7.543  -5.080  -6.183  1.00  0.00    -0.342 OA
ATOM     13  C   UNL     1       7.297  -3.109  -4.218  1.00  0.00    +0.184 C 
ATOM     14  C   UNL     1       6.667  -5.399  -5.107  1.00  0.00    +0.279 C 
ATOM     15  C   UNL     1       6.194  -4.173  -4.295  1.00  0.00    +0.202 C 
BRANCH  14  16
ATOM     16  O   UNL     1       7.315  -6.340  -4.254  1.00  0.00    -0.366 OA
ATOM     17  H   UNL     1       8.022  -6.722  -4.804  1.00  0.00    +0.213 HD
ENDBRANCH  14  16
BRANCH  15  18
ATOM     18  O   UNL     1       5.785  -4.562  -2.977  1.00  0.00    -0.385 OA
ATOM     19  H   UNL     1       5.214  -5.346  -3.128  1.00  0.00    +0.211 HD
ENDBRANCH  15  18
ENDBRANCH   7   8
ENDBRANCH   1   7
BRANCH   2  20
ATOM     20  O   UNL     1       3.804  -1.638  -5.892  1.00  0.00    -0.385 OA
ATOM     21  H   UNL     1       3.301  -2.316  -6.384  1.00  0.00    +0.211 HD
ENDBRANCH   2  20
BRANCH   3  22
ATOM     22  O   UNL     1       2.957   0.484  -7.472  1.00  0.00    -0.387 OA
ATOM     23  H   UNL     1       2.453   0.397  -6.636  1.00  0.00    +0.211 HD
ENDBRANCH   3  22
BRANCH   5  24
ATOM     24  C   UNL     1       7.051  -0.533  -9.279  1.00  0.00    +0.220 C 
BRANCH  24  25
ATOM     25  O   UNL     1       8.400  -0.277  -9.661  1.00  0.00    -0.245 OA
BRANCH  25  26
ATOM     26  S   UNL     1       9.537  -1.331  -9.178  1.00  0.00    +0.397 S 
ATOM     27  O   UNL     1      10.746  -1.138  -9.945  1.00  0.00    -0.169 OA
ATOM     28  O   UNL     1       8.918  -2.628  -9.029  1.00  0.00    -0.169 OA
BRANCH  26  29
ATOM     29  O   UNL     1       9.829  -0.841  -7.673  1.00  0.00    -0.264 OA
ATOM     30  H   UNL     1       9.529  -1.557  -7.077  1.00  0.00    +0.236 HD
ENDBRANCH  26  29
ENDBRANCH  25  26
ENDBRANCH  24  25
ENDBRANCH   5  24
BRANCH   4  31
ATOM     31  O   UNL     1       4.605   0.700  -9.461  1.00  0.00    -0.387 OA
ATOM     32  H   UNL     1       4.692  -0.272  -9.583  1.00  0.00    +0.211 HD
ENDBRANCH   4  31
TORSDOF 11
ENDMDL
MODEL 9
REMARK VINA RESULT:    -6.458     27.883     31.331
REMARK INTER + INTRA:         -10.757
REMARK INTER:                  -9.754
REMARK INTRA:                  -1.004
REMARK UNBOUND:                -1.279
REMARK SMILES O=S(=O)(O)OC[C@@H]1O[C@H](O[C@H]2[C@@H]3OC[C@H]2O[C@@H](O)[C@H]3O)[C@@H](O)[C@H](O)[C@@H]1O
REMARK SMILES IDX 9 1 21 2 23 3 25 4 7 5 8 6 10 7 11 8 14 9 15 10 13 11 16 12
REMARK SMILES IDX 12 13 17 14 19 15 18 16 20 18 22 20 24 22 6 24 5 25 2 26
REMARK SMILES IDX 1 27 3 28 4 29 26 31
REMARK H PARENT 18 17 20 19 22 21 24 23 4 30 26 32
ROOT
ATOM      1  C   UNL     1     -16.919  -3.913  11.876  1.00  0.00    +0.282 C 
ATOM      2  C   UNL     1     -15.516  -3.276  11.883  1.00  0.00    +0.202 C 
ATOM      3  C   UNL     1     -14.496  -4.378  12.117  1.00  0.00    +0.179 C 
ATOM      4  C   UNL     1     -14.523  -5.352  10.936  1.00  0.00    +0.177 C 
ATOM      5  C   UNL     1     -15.947  -5.578  10.374  1.00  0.00    +0.180 C 
ATOM      6  O   UNL     1     -16.973  -5.227  11.322  1.00  0.00    -0.341 OA
ENDROOT
BRANCH   1   7
ATOM      7  O   UNL     1     -17.813  -2.997  11.237  1.00  0.00    -0.341 OA
BRANCH   7   8
ATOM      8  C   UNL     1     -19.001  -2.766  11.987  1.00  0.00    +0.184 C 
ATOM      9  C   UNL     1     -21.312  -2.418  12.167  1.00  0.00    +0.195 C 
ATOM     10  C   UNL     1     -20.291  -3.095  11.251  1.00  0.00    +0.179 C 
ATOM     11  O   UNL     1     -20.643  -1.252  12.711  1.00  0.00    -0.370 OA
ATOM     12  O   UNL     1     -20.265  -2.546   9.922  1.00  0.00    -0.342 OA
ATOM     13  C   UNL     1     -19.281  -1.285  12.214  1.00  0.00    +0.184 C 
ATOM     14  C   UNL     1     -20.124  -1.132   9.827  1.00  0.00    +0.279 C 
ATOM     15  C   UNL     1     -19.183  -0.519  10.887  1.00  0.00    +0.202 C 
BRANCH  14  16
ATOM     16  O   UNL     1     -21.417  -0.538   9.907  1.00  0.00    -0.366 OA
ATOM     17  H   UNL     1     -22.030  -1.292   9.967  1.00  0.00    +0.213 HD
ENDBRANCH  14  16
BRANCH  15  18
ATOM     18  O   UNL     1     -19.480   0.869  11.091  1.00  0.00    -0.385 OA
ATOM     19  H   UNL     1     -18.957   1.327  10.398  1.00  0.00    +0.211 HD
ENDBRANCH  15  18
ENDBRANCH   7   8
ENDBRANCH   1   7
BRANCH   2  20
ATOM     20  O   UNL     1     -15.392  -2.289  12.921  1.00  0.00    -0.385 OA
ATOM     21  H   UNL     1     -16.253  -1.829  12.961  1.00  0.00    +0.211 HD
ENDBRANCH   2  20
BRANCH   3  22
ATOM     22  O   UNL     1     -13.177  -3.821  12.242  1.00  0.00    -0.387 OA
ATOM     23  H   UNL     1     -13.260  -3.132  12.933  1.00  0.00    +0.211 HD
ENDBRANCH   3  22
BRANCH   5  24
ATOM     24  C   UNL     1     -16.209  -4.957   8.990  1.00  0.00    +0.220 C 
BRANCH  24  25
ATOM     25  O   UNL     1     -15.479  -5.699   8.016  1.00  0.00    -0.245 OA
BRANCH  25  26
ATOM     26  S   UNL     1     -16.218  -6.966   7.319  1.00  0.00    +0.397 S 
ATOM     27  O   UNL     1     -15.798  -7.086   5.942  1.00  0.00    -0.169 OA
ATOM     28  O   UNL     1     -17.612  -6.944   7.701  1.00  0.00    -0.169 OA
BRANCH  26  29
ATOM     29  O   UNL     1     -15.590  -8.206   8.132  1.00  0.00    -0.264 OA
ATOM     30  H   UNL     1     -14.661  -8.298   7.839  1.00  0.00    +0.236 HD
ENDBRANCH  26  29
ENDBRANCH  25  26
ENDBRANCH  24  25
ENDBRANCH   5  24
BRANCH   4  31
ATOM     31  O   UNL     1     -13.628  -4.884   9.921  1.00  0.00    -0.387 OA
ATOM     32  H   UNL     1     -12.822  -5.437  10.023  1.00  0.00    +0.211 HD
ENDBRANCH   4  31
TORSDOF 11
ENDMDL
