MODEL 1
REMARK VINA RESULT:    -5.928      0.000      0.000
REMARK INTER + INTRA:         -10.481
REMARK INTER:                  -8.700
REMARK INTRA:                  -1.781
REMARK UNBOUND:                -1.781
REMARK SMILES O=S(=O)(O)OC[C@@H]1O[C@H](O[C@H]2[C@@H]3OC[C@H]2O[C@@H](O)[C@H]3O)[C@@H](O)[C@H](O)[C@@H]1O
REMARK SMILES IDX 9 1 21 2 23 3 25 4 7 5 8 6 10 7 11 8 14 9 15 10 13 11 16 12
REMARK SMILES IDX 12 13 17 14 19 15 18 16 20 18 22 20 24 22 6 24 5 25 2 26
REMARK SMILES IDX 1 27 3 28 4 29 26 31
REMARK H PARENT 18 17 20 19 22 21 24 23 4 30 26 32
ROOT
ATOM      1  C   UNL     1       6.253 -14.333  -3.205  1.00  0.00    +0.282 C 
ATOM      2  C   UNL     1       6.455 -13.965  -1.722  1.00  0.00    +0.202 C 
ATOM      3  C   UNL     1       5.454 -14.755  -0.896  1.00  0.00    +0.179 C 
ATOM      4  C   UNL     1       5.764 -16.249  -1.018  1.00  0.00    +0.177 C 
ATOM      5  C   UNL     1       6.248 -16.651  -2.431  1.00  0.00    +0.180 C 
ATOM      6  O   UNL     1       5.872 -15.688  -3.434  1.00  0.00    -0.341 OA
ENDROOT
BRANCH   1   7
ATOM      7  O   UNL     1       7.435 -13.953  -3.915  1.00  0.00    -0.341 OA
BRANCH   7   8
ATOM      8  C   UNL     1       7.258 -12.777  -4.697  1.00  0.00    +0.184 C 
ATOM      9  C   UNL     1       7.773 -11.392  -6.517  1.00  0.00    +0.195 C 
ATOM     10  C   UNL     1       7.802 -12.867  -6.115  1.00  0.00    +0.179 C 
ATOM     11  O   UNL     1       8.037 -10.645  -5.302  1.00  0.00    -0.370 OA
ATOM     12  O   UNL     1       9.126 -13.431  -6.109  1.00  0.00    -0.342 OA
ATOM     13  C   UNL     1       8.131 -11.618  -4.230  1.00  0.00    +0.184 C 
ATOM     14  C   UNL     1      10.112 -12.718  -5.370  1.00  0.00    +0.279 C 
ATOM     15  C   UNL     1       9.585 -12.084  -4.064  1.00  0.00    +0.202 C 
BRANCH  14  16
ATOM     16  O   UNL     1      10.681 -11.719  -6.213  1.00  0.00    -0.366 OA
ATOM     17  H   UNL     1       9.924 -11.173  -6.490  1.00  0.00    +0.213 HD
ENDBRANCH  14  16
BRANCH  15  18
ATOM     18  O   UNL     1      10.415 -10.988  -3.658  1.00  0.00    -0.385 OA
ATOM     19  H   UNL     1       9.914 -10.572  -2.923  1.00  0.00    +0.211 HD
ENDBRANCH  15  18
ENDBRANCH   7   8
ENDBRANCH   1   7
BRANCH   2  20
ATOM     20  O   UNL     1       6.250 -12.560  -1.497  1.00  0.00    -0.385 OA
ATOM     21  H   UNL     1       5.565 -12.281  -2.136  1.00  0.00    +0.211 HD
ENDBRANCH   2  20
BRANCH   3  22
ATOM     22  O   UNL     1       5.527 -14.367   0.486  1.00  0.00    -0.387 OA
ATOM     23  H   UNL     1       5.486 -15.210   0.985  1.00  0.00    +0.211 HD
ENDBRANCH   3  22
BRANCH   5  24
ATOM     24  C   UNL     1       7.738 -17.027  -2.529  1.00  0.00    +0.220 C 
BRANCH  24  25
ATOM     25  O   UNL     1       7.938 -17.782  -3.721  1.00  0.00    -0.245 OA
BRANCH  25  26
ATOM     26  S   UNL     1       8.916 -17.159  -4.857  1.00  0.00    +0.397 S 
ATOM     27  O   UNL     1       9.381 -18.207  -5.737  1.00  0.00    -0.169 OA
ATOM     28  O   UNL     1       9.822 -16.233  -4.217  1.00  0.00    -0.169 OA
BRANCH  26  29
ATOM     29  O   UNL     1       7.904 -16.230  -5.696  1.00  0.00    -0.264 OA
ATOM     30  H   UNL     1       7.938 -15.337  -5.296  1.00  0.00    +0.236 HD
ENDBRANCH  26  29
ENDBRANCH  25  26
ENDBRANCH  24  25
ENDBRANCH   5  24
BRANCH   4  31
ATOM     31  O   UNL     1       6.719 -16.613  -0.014  1.00  0.00    -0.387 OA
ATOM     32  H   UNL     1       6.313 -16.326   0.834  1.00  0.00    +0.211 HD
ENDBRANCH   4  31
TORSDOF 11
ENDMDL
MODEL 2
REMARK VINA RESULT:    -5.673     23.670     27.038
REMARK INTER + INTRA:         -10.108
REMARK INTER:                  -9.117
REMARK INTRA:                  -0.991
REMARK UNBOUND:                -1.781
REMARK SMILES O=S(=O)(O)OC[C@@H]1O[C@H](O[C@H]2[C@@H]3OC[C@H]2O[C@@H](O)[C@H]3O)[C@@H](O)[C@H](O)[C@@H]1O
REMARK SMILES IDX 9 1 21 2 23 3 25 4 7 5 8 6 10 7 11 8 14 9 15 10 13 11 16 12
REMARK SMILES IDX 12 13 17 14 19 15 18 16 20 18 22 20 24 22 6 24 5 25 2 26
REMARK SMILES IDX 1 27 3 28 4 29 26 31
REMARK H PARENT 18 17 20 19 22 21 24 23 4 30 26 32
ROOT
ATOM      1  C   UNL     1      18.664  10.009  -4.625  1.00  0.00    +0.282 C 
ATOM      2  C   UNL     1      17.828  10.514  -3.433  1.00  0.00    +0.202 C 
ATOM      3  C   UNL     1      18.355  11.881  -3.030  1.00  0.00    +0.179 C 
ATOM      4  C   UNL     1      18.120  12.871  -4.175  1.00  0.00    +0.177 C 
ATOM      5  C   UNL     1      18.310  12.233  -5.572  1.00  0.00    +0.180 C 
ATOM      6  O   UNL     1      19.098  11.029  -5.522  1.00  0.00    -0.341 OA
ENDROOT
BRANCH   1   7
ATOM      7  O   UNL     1      17.922   8.970  -5.271  1.00  0.00    -0.341 OA
BRANCH   7   8
ATOM      8  C   UNL     1      18.573   7.706  -5.216  1.00  0.00    +0.184 C 
ATOM      9  C   UNL     1      20.197   6.170  -5.923  1.00  0.00    +0.195 C 
ATOM     10  C   UNL     1      19.963   7.679  -5.832  1.00  0.00    +0.179 C 
ATOM     11  O   UNL     1      18.893   5.581  -6.165  1.00  0.00    -0.370 OA
ATOM     12  O   UNL     1      19.957   8.332  -7.114  1.00  0.00    -0.342 OA
ATOM     13  C   UNL     1      17.935   6.670  -6.135  1.00  0.00    +0.184 C 
ATOM     14  C   UNL     1      19.094   7.776  -8.101  1.00  0.00    +0.279 C 
ATOM     15  C   UNL     1      17.752   7.253  -7.543  1.00  0.00    +0.202 C 
BRANCH  14  16
ATOM     16  O   UNL     1      19.789   6.734  -8.781  1.00  0.00    -0.366 OA
ATOM     17  H   UNL     1      20.713   6.823  -8.485  1.00  0.00    +0.213 HD
ENDBRANCH  14  16
BRANCH  15  18
ATOM     18  O   UNL     1      17.184   6.271  -8.419  1.00  0.00    -0.385 OA
ATOM     19  H   UNL     1      16.666   6.799  -9.063  1.00  0.00    +0.211 HD
ENDBRANCH  15  18
ENDBRANCH   7   8
ENDBRANCH   1   7
BRANCH   2  20
ATOM     20  O   UNL     1      17.921   9.622  -2.310  1.00  0.00    -0.385 OA
ATOM     21  H   UNL     1      18.422   8.843  -2.624  1.00  0.00    +0.211 HD
ENDBRANCH   2  20
BRANCH   3  22
ATOM     22  O   UNL     1      17.679  12.352  -1.852  1.00  0.00    -0.387 OA
ATOM     23  H   UNL     1      17.480  13.293  -2.037  1.00  0.00    +0.211 HD
ENDBRANCH   3  22
BRANCH   5  24
ATOM     24  C   UNL     1      17.015  12.038  -6.381  1.00  0.00    +0.220 C 
BRANCH  24  25
ATOM     25  O   UNL     1      16.703  13.263  -7.040  1.00  0.00    -0.245 OA
BRANCH  25  26
ATOM     26  S   UNL     1      15.242  13.400  -7.733  1.00  0.00    +0.397 S 
ATOM     27  O   UNL     1      15.162  14.637  -8.476  1.00  0.00    -0.169 OA
ATOM     28  O   UNL     1      14.241  13.020  -6.761  1.00  0.00    -0.169 OA
BRANCH  26  29
ATOM     29  O   UNL     1      15.262  12.191  -8.796  1.00  0.00    -0.264 OA
ATOM     30  H   UNL     1      16.202  11.980  -8.969  1.00  0.00    +0.236 HD
ENDBRANCH  26  29
ENDBRANCH  25  26
ENDBRANCH  24  25
ENDBRANCH   5  24
BRANCH   4  31
ATOM     31  O   UNL     1      16.817  13.449  -4.036  1.00  0.00    -0.387 OA
ATOM     32  H   UNL     1      16.415  12.979  -3.271  1.00  0.00    +0.211 HD
ENDBRANCH   4  31
TORSDOF 11
ENDMDL
MODEL 3
REMARK VINA RESULT:    -5.498      2.291      5.569
REMARK INTER + INTRA:          -9.850
REMARK INTER:                  -8.769
REMARK INTRA:                  -1.081
REMARK UNBOUND:                -1.781
REMARK SMILES O=S(=O)(O)OC[C@@H]1O[C@H](O[C@H]2[C@@H]3OC[C@H]2O[C@@H](O)[C@H]3O)[C@@H](O)[C@H](O)[C@@H]1O
REMARK SMILES IDX 9 1 21 2 23 3 25 4 7 5 8 6 10 7 11 8 14 9 15 10 13 11 16 12
REMARK SMILES IDX 12 13 17 14 19 15 18 16 20 18 22 20 24 22 6 24 5 25 2 26
REMARK SMILES IDX 1 27 3 28 4 29 26 31
REMARK H PARENT 18 17 20 19 22 21 24 23 4 30 26 32
ROOT
ATOM      1  C   UNL     1       7.003 -15.017  -2.055  1.00  0.00    +0.282 C 
ATOM      2  C   UNL     1       6.300 -13.924  -1.225  1.00  0.00    +0.202 C 
ATOM      3  C   UNL     1       7.369 -13.037  -0.610  1.00  0.00    +0.179 C 
ATOM      4  C   UNL     1       8.128 -12.312  -1.724  1.00  0.00    +0.177 C 
ATOM      5  C   UNL     1       8.333 -13.189  -2.983  1.00  0.00    +0.180 C 
ATOM      6  O   UNL     1       8.204 -14.595  -2.698  1.00  0.00    -0.341 OA
ENDROOT
BRANCH   1   7
ATOM      7  O   UNL     1       6.041 -15.563  -2.962  1.00  0.00    -0.341 OA
BRANCH   7   8
ATOM      8  C   UNL     1       6.127 -16.979  -3.076  1.00  0.00    +0.184 C 
ATOM      9  C   UNL     1       6.949 -18.941  -4.062  1.00  0.00    +0.195 C 
ATOM     10  C   UNL     1       7.351 -17.485  -3.824  1.00  0.00    +0.179 C 
ATOM     11  O   UNL     1       5.507 -18.932  -4.225  1.00  0.00    -0.370 OA
ATOM     12  O   UNL     1       7.538 -16.740  -5.041  1.00  0.00    -0.342 OA
ATOM     13  C   UNL     1       5.074 -17.563  -4.011  1.00  0.00    +0.184 C 
ATOM     14  C   UNL     1       6.472 -16.790  -5.982  1.00  0.00    +0.279 C 
ATOM     15  C   UNL     1       5.065 -16.798  -5.342  1.00  0.00    +0.202 C 
BRANCH  14  16
ATOM     16  O   UNL     1       6.646 -17.937  -6.810  1.00  0.00    -0.366 OA
ATOM     17  H   UNL     1       6.816 -17.574  -7.698  1.00  0.00    +0.213 HD
ENDBRANCH  14  16
BRANCH  15  18
ATOM     18  O   UNL     1       4.101 -17.367  -6.237  1.00  0.00    -0.385 OA
ATOM     19  H   UNL     1       4.168 -18.332  -6.075  1.00  0.00    +0.211 HD
ENDBRANCH  15  18
ENDBRANCH   7   8
ENDBRANCH   1   7
BRANCH   2  20
ATOM     20  O   UNL     1       5.499 -14.495  -0.176  1.00  0.00    -0.385 OA
ATOM     21  H   UNL     1       5.501 -13.842   0.551  1.00  0.00    +0.211 HD
ENDBRANCH   2  20
BRANCH   3  22
ATOM     22  O   UNL     1       6.770 -12.065   0.265  1.00  0.00    -0.387 OA
ATOM     23  H   UNL     1       7.493 -11.436   0.472  1.00  0.00    +0.211 HD
ENDBRANCH   3  22
BRANCH   5  24
ATOM     24  C   UNL     1       7.500 -12.774  -4.210  1.00  0.00    +0.220 C 
BRANCH  24  25
ATOM     25  O   UNL     1       8.393 -12.454  -5.274  1.00  0.00    -0.245 OA
BRANCH  25  26
ATOM     26  S   UNL     1       8.900 -10.917  -5.401  1.00  0.00    +0.397 S 
ATOM     27  O   UNL     1       8.082 -10.057  -4.576  1.00  0.00    -0.169 OA
ATOM     28  O   UNL     1       9.150 -10.634  -6.796  1.00  0.00    -0.169 OA
BRANCH  26  29
ATOM     29  O   UNL     1      10.361 -10.992  -4.729  1.00  0.00    -0.264 OA
ATOM     30  H   UNL     1      10.918 -11.541  -5.318  1.00  0.00    +0.236 HD
ENDBRANCH  26  29
ENDBRANCH  25  26
ENDBRANCH  24  25
ENDBRANCH   5  24
BRANCH   4  31
ATOM     31  O   UNL     1       7.446 -11.093  -2.041  1.00  0.00    -0.387 OA
ATOM     32  H   UNL     1       6.665 -11.372  -2.568  1.00  0.00    +0.211 HD
ENDBRANCH   4  31
TORSDOF 11
ENDMDL
MODEL 4
REMARK VINA RESULT:    -5.427     23.968     27.078
REMARK INTER + INTRA:          -9.746
REMARK INTER:                  -8.633
REMARK INTRA:                  -1.113
REMARK UNBOUND:                -1.781
REMARK SMILES O=S(=O)(O)OC[C@@H]1O[C@H](O[C@H]2[C@@H]3OC[C@H]2O[C@@H](O)[C@H]3O)[C@@H](O)[C@H](O)[C@@H]1O
REMARK SMILES IDX 9 1 21 2 23 3 25 4 7 5 8 6 10 7 11 8 14 9 15 10 13 11 16 12
REMARK SMILES IDX 12 13 17 14 19 15 18 16 20 18 22 20 24 22 6 24 5 25 2 26
REMARK SMILES IDX 1 27 3 28 4 29 26 31
REMARK H PARENT 18 17 20 19 22 21 24 23 4 30 26 32
ROOT
ATOM      1  C   UNL     1      12.155   8.022 -20.024  1.00  0.00    +0.282 C 
ATOM      2  C   UNL     1      10.860   7.205 -20.197  1.00  0.00    +0.202 C 
ATOM      3  C   UNL     1      11.200   5.932 -20.955  1.00  0.00    +0.179 C 
ATOM      4  C   UNL     1      12.142   5.075 -20.105  1.00  0.00    +0.177 C 
ATOM      5  C   UNL     1      13.161   5.916 -19.299  1.00  0.00    +0.180 C 
ATOM      6  O   UNL     1      13.333   7.238 -19.844  1.00  0.00    -0.341 OA
ENDROOT
BRANCH   1   7
ATOM      7  O   UNL     1      11.940   8.964 -18.969  1.00  0.00    -0.341 OA
BRANCH   7   8
ATOM      8  C   UNL     1      12.952   9.963 -18.902  1.00  0.00    +0.184 C 
ATOM      9  C   UNL     1      14.678  11.106 -17.802  1.00  0.00    +0.195 C 
ATOM     10  C   UNL     1      14.004   9.733 -17.828  1.00  0.00    +0.179 C 
ATOM     11  O   UNL     1      13.633  12.066 -18.107  1.00  0.00    -0.370 OA
ATOM     12  O   UNL     1      13.379   9.381 -16.580  1.00  0.00    -0.342 OA
ATOM     13  C   UNL     1      12.433  11.298 -18.381  1.00  0.00    +0.184 C 
ATOM     14  C   UNL     1      12.481  10.341 -16.032  1.00  0.00    +0.279 C 
ATOM     15  C   UNL     1      11.634  11.086 -17.087  1.00  0.00    +0.202 C 
BRANCH  14  16
ATOM     16  O   UNL     1      13.227  11.269 -15.248  1.00  0.00    -0.366 OA
ATOM     17  H   UNL     1      13.839  11.686 -15.880  1.00  0.00    +0.213 HD
ENDBRANCH  14  16
BRANCH  15  18
ATOM     18  O   UNL     1      11.173  12.344 -16.575  1.00  0.00    -0.385 OA
ATOM     19  H   UNL     1      10.931  12.146 -15.645  1.00  0.00    +0.211 HD
ENDBRANCH  15  18
ENDBRANCH   7   8
ENDBRANCH   1   7
BRANCH   2  20
ATOM     20  O   UNL     1       9.869   7.942 -20.933  1.00  0.00    -0.385 OA
ATOM     21  H   UNL     1       9.926   8.864 -20.615  1.00  0.00    +0.211 HD
ENDBRANCH   2  20
BRANCH   3  22
ATOM     22  O   UNL     1      10.006   5.184 -21.239  1.00  0.00    -0.387 OA
ATOM     23  H   UNL     1       9.382   5.841 -21.613  1.00  0.00    +0.211 HD
ENDBRANCH   3  22
BRANCH   5  24
ATOM     24  C   UNL     1      12.921   5.949 -17.779  1.00  0.00    +0.220 C 
BRANCH  24  25
ATOM     25  O   UNL     1      14.022   5.314 -17.133  1.00  0.00    -0.245 OA
BRANCH  25  26
ATOM     26  S   UNL     1      13.765   3.865 -16.447  1.00  0.00    +0.397 S 
ATOM     27  O   UNL     1      14.997   3.110 -16.411  1.00  0.00    -0.169 OA
ATOM     28  O   UNL     1      12.541   3.318 -16.988  1.00  0.00    -0.169 OA
BRANCH  26  29
ATOM     29  O   UNL     1      13.398   4.273 -14.934  1.00  0.00    -0.264 OA
ATOM     30  H   UNL     1      12.595   3.769 -14.690  1.00  0.00    +0.236 HD
ENDBRANCH  26  29
ENDBRANCH  25  26
ENDBRANCH  24  25
ENDBRANCH   5  24
BRANCH   4  31
ATOM     31  O   UNL     1      11.365   4.231 -19.248  1.00  0.00    -0.387 OA
ATOM     32  H   UNL     1      11.416   3.339 -19.659  1.00  0.00    +0.211 HD
ENDBRANCH   4  31
TORSDOF 11
ENDMDL
MODEL 5
REMARK VINA RESULT:    -5.381     10.500     12.333
REMARK INTER + INTRA:          -9.678
REMARK INTER:                  -8.704
REMARK INTRA:                  -0.974
REMARK UNBOUND:                -1.781
REMARK SMILES O=S(=O)(O)OC[C@@H]1O[C@H](O[C@H]2[C@@H]3OC[C@H]2O[C@@H](O)[C@H]3O)[C@@H](O)[C@H](O)[C@@H]1O
REMARK SMILES IDX 9 1 21 2 23 3 25 4 7 5 8 6 10 7 11 8 14 9 15 10 13 11 16 12
REMARK SMILES IDX 12 13 17 14 19 15 18 16 20 18 22 20 24 22 6 24 5 25 2 26
REMARK SMILES IDX 1 27 3 28 4 29 26 31
REMARK H PARENT 18 17 20 19 22 21 24 23 4 30 26 32
ROOT
ATOM      1  C   UNL     1       3.157  -7.872 -10.091  1.00  0.00    +0.282 C 
ATOM      2  C   UNL     1       2.107  -6.828  -9.665  1.00  0.00    +0.202 C 
ATOM      3  C   UNL     1       2.716  -5.959  -8.579  1.00  0.00    +0.179 C 
ATOM      4  C   UNL     1       3.894  -5.173  -9.161  1.00  0.00    +0.177 C 
ATOM      5  C   UNL     1       4.709  -5.988 -10.194  1.00  0.00    +0.180 C 
ATOM      6  O   UNL     1       4.505  -7.407 -10.058  1.00  0.00    -0.341 OA
ENDROOT
BRANCH   1   7
ATOM      7  O   UNL     1       2.771  -8.386 -11.369  1.00  0.00    -0.341 OA
BRANCH   7   8
ATOM      8  C   UNL     1       2.758  -9.809 -11.415  1.00  0.00    +0.184 C 
ATOM      9  C   UNL     1       2.532 -11.851 -12.542  1.00  0.00    +0.195 C 
ATOM     10  C   UNL     1       2.946 -10.402 -12.802  1.00  0.00    +0.179 C 
ATOM     11  O   UNL     1       1.504 -11.792 -11.520  1.00  0.00    -0.370 OA
ATOM     12  O   UNL     1       2.102  -9.731 -13.755  1.00  0.00    -0.342 OA
ATOM     13  C   UNL     1       1.379 -10.397 -11.139  1.00  0.00    +0.184 C 
ATOM     14  C   UNL     1       0.701  -9.787 -13.505  1.00  0.00    +0.279 C 
ATOM     15  C   UNL     1       0.323  -9.703 -12.010  1.00  0.00    +0.202 C 
BRANCH  14  16
ATOM     16  O   UNL     1       0.182 -10.982 -14.083  1.00  0.00    -0.366 OA
ATOM     17  H   UNL     1      -0.647 -11.147 -13.598  1.00  0.00    +0.213 HD
ENDBRANCH  14  16
BRANCH  15  18
ATOM     18  O   UNL     1      -0.970 -10.278 -11.778  1.00  0.00    -0.385 OA
ATOM     19  H   UNL     1      -0.827 -11.240 -11.907  1.00  0.00    +0.211 HD
ENDBRANCH  15  18
ENDBRANCH   7   8
ENDBRANCH   1   7
BRANCH   2  20
ATOM     20  O   UNL     1       0.918  -7.457  -9.156  1.00  0.00    -0.385 OA
ATOM     21  H   UNL     1       0.907  -8.359  -9.533  1.00  0.00    +0.211 HD
ENDBRANCH   2  20
BRANCH   3  22
ATOM     22  O   UNL     1       1.738  -5.036  -8.068  1.00  0.00    -0.387 OA
ATOM     23  H   UNL     1       1.114  -4.896  -8.812  1.00  0.00    +0.211 HD
ENDBRANCH   3  22
BRANCH   5  24
ATOM     24  C   UNL     1       4.559  -5.524 -11.655  1.00  0.00    +0.220 C 
BRANCH  24  25
ATOM     25  O   UNL     1       5.786  -4.927 -12.069  1.00  0.00    -0.245 OA
BRANCH  25  26
ATOM     26  S   UNL     1       6.801  -5.824 -12.963  1.00  0.00    +0.397 S 
ATOM     27  O   UNL     1       6.260  -7.153 -13.139  1.00  0.00    -0.169 OA
ATOM     28  O   UNL     1       8.146  -5.596 -12.489  1.00  0.00    -0.169 OA
BRANCH  26  29
ATOM     29  O   UNL     1       6.737  -5.079 -14.389  1.00  0.00    -0.264 OA
ATOM     30  H   UNL     1       6.233  -4.250 -14.255  1.00  0.00    +0.236 HD
ENDBRANCH  26  29
ENDBRANCH  25  26
ENDBRANCH  24  25
ENDBRANCH   5  24
BRANCH   4  31
ATOM     31  O   UNL     1       3.410  -3.949  -9.723  1.00  0.00    -0.387 OA
ATOM     32  H   UNL     1       2.897  -3.525  -8.999  1.00  0.00    +0.211 HD
ENDBRANCH   4  31
TORSDOF 11
ENDMDL
MODEL 6
REMARK VINA RESULT:    -5.260     22.774     26.747
REMARK INTER + INTRA:          -9.502
REMARK INTER:                  -7.845
REMARK INTRA:                  -1.656
REMARK UNBOUND:                -1.781
REMARK SMILES O=S(=O)(O)OC[C@@H]1O[C@H](O[C@H]2[C@@H]3OC[C@H]2O[C@@H](O)[C@H]3O)[C@@H](O)[C@H](O)[C@@H]1O
REMARK SMILES IDX 9 1 21 2 23 3 25 4 7 5 8 6 10 7 11 8 14 9 15 10 13 11 16 12
REMARK SMILES IDX 12 13 17 14 19 15 18 16 20 18 22 20 24 22 6 24 5 25 2 26
REMARK SMILES IDX 1 27 3 28 4 29 26 31
REMARK H PARENT 18 17 20 19 22 21 24 23 4 30 26 32
ROOT
ATOM      1  C   UNL     1      14.217   7.723 -18.695  1.00  0.00    +0.282 C 
ATOM      2  C   UNL     1      14.234   8.849 -17.643  1.00  0.00    +0.202 C 
ATOM      3  C   UNL     1      14.367  10.176 -18.370  1.00  0.00    +0.179 C 
ATOM      4  C   UNL     1      13.122  10.407 -19.232  1.00  0.00    +0.177 C 
ATOM      5  C   UNL     1      12.581   9.105 -19.871  1.00  0.00    +0.180 C 
ATOM      6  O   UNL     1      13.576   8.065 -19.922  1.00  0.00    -0.341 OA
ENDROOT
BRANCH   1   7
ATOM      7  O   UNL     1      13.665   6.556 -18.079  1.00  0.00    -0.341 OA
BRANCH   7   8
ATOM      8  C   UNL     1      14.601   5.488 -17.974  1.00  0.00    +0.184 C 
ATOM      9  C   UNL     1      15.218   3.236 -18.174  1.00  0.00    +0.195 C 
ATOM     10  C   UNL     1      14.245   4.248 -18.779  1.00  0.00    +0.179 C 
ATOM     11  O   UNL     1      15.370   3.616 -16.782  1.00  0.00    -0.370 OA
ATOM     12  O   UNL     1      12.863   3.900 -18.581  1.00  0.00    -0.342 OA
ATOM     13  C   UNL     1      14.599   4.831 -16.598  1.00  0.00    +0.184 C 
ATOM     14  C   UNL     1      12.473   3.608 -17.243  1.00  0.00    +0.279 C 
ATOM     15  C   UNL     1      13.163   4.489 -16.178  1.00  0.00    +0.202 C 
BRANCH  14  16
ATOM     16  O   UNL     1      12.723   2.229 -16.985  1.00  0.00    -0.366 OA
ATOM     17  H   UNL     1      13.164   1.905 -17.791  1.00  0.00    +0.213 HD
ENDBRANCH  14  16
BRANCH  15  18
ATOM     18  O   UNL     1      13.160   3.839 -14.900  1.00  0.00    -0.385 OA
ATOM     19  H   UNL     1      14.107   3.652 -14.728  1.00  0.00    +0.211 HD
ENDBRANCH  15  18
ENDBRANCH   7   8
ENDBRANCH   1   7
BRANCH   2  20
ATOM     20  O   UNL     1      15.334   8.698 -16.730  1.00  0.00    -0.385 OA
ATOM     21  H   UNL     1      15.060   8.016 -16.086  1.00  0.00    +0.211 HD
ENDBRANCH   2  20
BRANCH   3  22
ATOM     22  O   UNL     1      14.497  11.253 -17.428  1.00  0.00    -0.387 OA
ATOM     23  H   UNL     1      15.256  11.781 -17.754  1.00  0.00    +0.211 HD
ENDBRANCH   3  22
BRANCH   5  24
ATOM     24  C   UNL     1      11.250   8.597 -19.288  1.00  0.00    +0.220 C 
BRANCH  24  25
ATOM     25  O   UNL     1      10.414   8.179 -20.365  1.00  0.00    -0.245 OA
BRANCH  25  26
ATOM     26  S   UNL     1      10.334   6.590 -20.687  1.00  0.00    +0.397 S 
ATOM     27  O   UNL     1      10.936   6.316 -21.972  1.00  0.00    -0.169 OA
ATOM     28  O   UNL     1       9.010   6.123 -20.341  1.00  0.00    -0.169 OA
BRANCH  26  29
ATOM     29  O   UNL     1      11.295   5.971 -19.554  1.00  0.00    -0.264 OA
ATOM     30  H   UNL     1      11.933   6.671 -19.308  1.00  0.00    +0.236 HD
ENDBRANCH  26  29
ENDBRANCH  25  26
ENDBRANCH  24  25
ENDBRANCH   5  24
BRANCH   4  31
ATOM     31  O   UNL     1      12.120  11.059 -18.444  1.00  0.00    -0.387 OA
ATOM     32  H   UNL     1      11.923  10.429 -17.716  1.00  0.00    +0.211 HD
ENDBRANCH   4  31
TORSDOF 11
ENDMDL
MODEL 7
REMARK VINA RESULT:    -5.201      2.376      5.883
REMARK INTER + INTRA:          -9.414
REMARK INTER:                  -8.779
REMARK INTRA:                  -0.634
REMARK UNBOUND:                -1.781
REMARK SMILES O=S(=O)(O)OC[C@@H]1O[C@H](O[C@H]2[C@@H]3OC[C@H]2O[C@@H](O)[C@H]3O)[C@@H](O)[C@H](O)[C@@H]1O
REMARK SMILES IDX 9 1 21 2 23 3 25 4 7 5 8 6 10 7 11 8 14 9 15 10 13 11 16 12
REMARK SMILES IDX 12 13 17 14 19 15 18 16 20 18 22 20 24 22 6 24 5 25 2 26
REMARK SMILES IDX 1 27 3 28 4 29 26 31
REMARK H PARENT 18 17 20 19 22 21 24 23 4 30 26 32
ROOT
ATOM      1  C   UNL     1       9.053 -14.410  -4.281  1.00  0.00    +0.282 C 
ATOM      2  C   UNL     1       9.388 -12.920  -4.074  1.00  0.00    +0.202 C 
ATOM      3  C   UNL     1       9.959 -12.378  -5.373  1.00  0.00    +0.179 C 
ATOM      4  C   UNL     1       8.883 -12.433  -6.461  1.00  0.00    +0.177 C 
ATOM      5  C   UNL     1       7.981 -13.685  -6.353  1.00  0.00    +0.180 C 
ATOM      6  O   UNL     1       8.596 -14.741  -5.591  1.00  0.00    -0.341 OA
ENDROOT
BRANCH   1   7
ATOM      7  O   UNL     1       8.139 -14.800  -3.252  1.00  0.00    -0.341 OA
BRANCH   7   8
ATOM      8  C   UNL     1       7.715 -13.708  -2.442  1.00  0.00    +0.184 C 
ATOM      9  C   UNL     1       7.012 -12.775  -0.410  1.00  0.00    +0.195 C 
ATOM     10  C   UNL     1       7.855 -13.934  -0.945  1.00  0.00    +0.179 C 
ATOM     11  O   UNL     1       5.952 -12.575  -1.381  1.00  0.00    -0.370 OA
ATOM     12  O   UNL     1       7.340 -15.227  -0.582  1.00  0.00    -0.342 OA
ATOM     13  C   UNL     1       6.204 -13.505  -2.466  1.00  0.00    +0.184 C 
ATOM     14  C   UNL     1       5.967 -15.465  -0.874  1.00  0.00    +0.279 C 
ATOM     15  C   UNL     1       5.487 -14.836  -2.201  1.00  0.00    +0.202 C 
BRANCH  14  16
ATOM     16  O   UNL     1       5.179 -14.989   0.215  1.00  0.00    -0.366 OA
ATOM     17  H   UNL     1       4.925 -14.086  -0.044  1.00  0.00    +0.213 HD
ENDBRANCH  14  16
BRANCH  15  18
ATOM     18  O   UNL     1       4.067 -14.641  -2.188  1.00  0.00    -0.385 OA
ATOM     19  H   UNL     1       3.901 -14.055  -2.958  1.00  0.00    +0.211 HD
ENDBRANCH  15  18
ENDBRANCH   7   8
ENDBRANCH   1   7
BRANCH   2  20
ATOM     20  O   UNL     1      10.351 -12.739  -3.022  1.00  0.00    -0.385 OA
ATOM     21  H   UNL     1       9.959 -12.091  -2.404  1.00  0.00    +0.211 HD
ENDBRANCH   2  20
BRANCH   3  22
ATOM     22  O   UNL     1      10.390 -11.017  -5.202  1.00  0.00    -0.387 OA
ATOM     23  H   UNL     1       9.908 -10.513  -5.891  1.00  0.00    +0.211 HD
ENDBRANCH   3  22
BRANCH   5  24
ATOM     24  C   UNL     1       6.537 -13.412  -5.892  1.00  0.00    +0.220 C 
BRANCH  24  25
ATOM     25  O   UNL     1       5.654 -13.709  -6.971  1.00  0.00    -0.245 OA
BRANCH  25  26
ATOM     26  S   UNL     1       4.104 -14.032  -6.613  1.00  0.00    +0.397 S 
ATOM     27  O   UNL     1       3.269 -12.910  -6.979  1.00  0.00    -0.169 OA
ATOM     28  O   UNL     1       4.056 -14.630  -5.298  1.00  0.00    -0.169 OA
BRANCH  26  29
ATOM     29  O   UNL     1       3.772 -15.239  -7.625  1.00  0.00    -0.264 OA
ATOM     30  H   UNL     1       4.093 -16.061  -7.203  1.00  0.00    +0.236 HD
ENDBRANCH  26  29
ENDBRANCH  25  26
ENDBRANCH  24  25
ENDBRANCH   5  24
BRANCH   4  31
ATOM     31  O   UNL     1       8.112 -11.227  -6.420  1.00  0.00    -0.387 OA
ATOM     32  H   UNL     1       7.617 -11.274  -5.571  1.00  0.00    +0.211 HD
ENDBRANCH   4  31
TORSDOF 11
ENDMDL
MODEL 8
REMARK VINA RESULT:    -5.086      7.910     10.540
REMARK INTER + INTRA:          -9.246
REMARK INTER:                  -8.171
REMARK INTRA:                  -1.076
REMARK UNBOUND:                -1.781
REMARK SMILES O=S(=O)(O)OC[C@@H]1O[C@H](O[C@H]2[C@@H]3OC[C@H]2O[C@@H](O)[C@H]3O)[C@@H](O)[C@H](O)[C@@H]1O
REMARK SMILES IDX 9 1 21 2 23 3 25 4 7 5 8 6 10 7 11 8 14 9 15 10 13 11 16 12
REMARK SMILES IDX 12 13 17 14 19 15 18 16 20 18 22 20 24 22 6 24 5 25 2 26
REMARK SMILES IDX 1 27 3 28 4 29 26 31
REMARK H PARENT 18 17 20 19 22 21 24 23 4 30 26 32
ROOT
ATOM      1  C   UNL     1       4.097  -6.012 -11.214  1.00  0.00    +0.282 C 
ATOM      2  C   UNL     1       3.855  -5.247  -9.898  1.00  0.00    +0.202 C 
ATOM      3  C   UNL     1       2.431  -5.519  -9.447  1.00  0.00    +0.179 C 
ATOM      4  C   UNL     1       2.280  -7.006  -9.116  1.00  0.00    +0.177 C 
ATOM      5  C   UNL     1       3.090  -7.920 -10.066  1.00  0.00    +0.180 C 
ATOM      6  O   UNL     1       3.422  -7.265 -11.306  1.00  0.00    -0.341 OA
ENDROOT
BRANCH   1   7
ATOM      7  O   UNL     1       5.511  -6.121 -11.403  1.00  0.00    -0.341 OA
BRANCH   7   8
ATOM      8  C   UNL     1       5.860  -6.858 -12.570  1.00  0.00    +0.184 C 
ATOM      9  C   UNL     1       7.120  -8.471 -13.712  1.00  0.00    +0.195 C 
ATOM     10  C   UNL     1       6.617  -8.150 -12.304  1.00  0.00    +0.179 C 
ATOM     11  O   UNL     1       7.356  -7.190 -14.350  1.00  0.00    -0.370 OA
ATOM     12  O   UNL     1       7.677  -7.925 -11.357  1.00  0.00    -0.342 OA
ATOM     13  C   UNL     1       6.936  -6.173 -13.404  1.00  0.00    +0.184 C 
ATOM     14  C   UNL     1       8.669  -6.976 -11.735  1.00  0.00    +0.279 C 
ATOM     15  C   UNL     1       8.115  -5.761 -12.512  1.00  0.00    +0.202 C 
BRANCH  14  16
ATOM     16  O   UNL     1       9.669  -7.641 -12.501  1.00  0.00    -0.366 OA
ATOM     17  H   UNL     1      10.261  -6.928 -12.802  1.00  0.00    +0.213 HD
ENDBRANCH  14  16
BRANCH  15  18
ATOM     18  O   UNL     1       9.144  -5.147 -13.299  1.00  0.00    -0.385 OA
ATOM     19  H   UNL     1       8.906  -5.379 -14.222  1.00  0.00    +0.211 HD
ENDBRANCH  15  18
ENDBRANCH   7   8
ENDBRANCH   1   7
BRANCH   2  20
ATOM     20  O   UNL     1       4.033  -3.831 -10.075  1.00  0.00    -0.385 OA
ATOM     21  H   UNL     1       4.247  -3.473  -9.191  1.00  0.00    +0.211 HD
ENDBRANCH   2  20
BRANCH   3  22
ATOM     22  O   UNL     1       2.117  -4.740  -8.280  1.00  0.00    -0.387 OA
ATOM     23  H   UNL     1       2.553  -5.212  -7.539  1.00  0.00    +0.211 HD
ENDBRANCH   3  22
BRANCH   5  24
ATOM     24  C   UNL     1       4.317  -8.599  -9.430  1.00  0.00    +0.220 C 
BRANCH  24  25
ATOM     25  O   UNL     1       3.861  -9.541  -8.462  1.00  0.00    -0.245 OA
BRANCH  25  26
ATOM     26  S   UNL     1       4.568 -11.002  -8.436  1.00  0.00    +0.397 S 
ATOM     27  O   UNL     1       5.834 -10.926  -7.743  1.00  0.00    -0.169 OA
ATOM     28  O   UNL     1       4.443 -11.591  -9.750  1.00  0.00    -0.169 OA
BRANCH  26  29
ATOM     29  O   UNL     1       3.556 -11.846  -7.511  1.00  0.00    -0.264 OA
ATOM     30  H   UNL     1       3.940 -12.741  -7.411  1.00  0.00    +0.236 HD
ENDBRANCH  26  29
ENDBRANCH  25  26
ENDBRANCH  24  25
ENDBRANCH   5  24
BRANCH   4  31
ATOM     31  O   UNL     1       2.643  -7.221  -7.747  1.00  0.00    -0.387 OA
ATOM     32  H   UNL     1       2.461  -6.364  -7.301  1.00  0.00    +0.211 HD
ENDBRANCH   4  31
TORSDOF 11
ENDMDL
MODEL 9
REMARK VINA RESULT:    -4.942      6.999     10.543
REMARK INTER + INTRA:          -9.034
REMARK INTER:                  -7.256
REMARK INTRA:                  -1.778
REMARK UNBOUND:                -1.781
REMARK SMILES O=S(=O)(O)OC[C@@H]1O[C@H](O[C@H]2[C@@H]3OC[C@H]2O[C@@H](O)[C@H]3O)[C@@H](O)[C@H](O)[C@@H]1O
REMARK SMILES IDX 9 1 21 2 23 3 25 4 7 5 8 6 10 7 11 8 14 9 15 10 13 11 16 12
REMARK SMILES IDX 12 13 17 14 19 15 18 16 20 18 22 20 24 22 6 24 5 25 2 26
REMARK SMILES IDX 1 27 3 28 4 29 26 31
REMARK H PARENT 18 17 20 19 22 21 24 23 4 30 26 32
ROOT
ATOM      1  C   UNL     1       4.760  -7.270  -8.742  1.00  0.00    +0.282 C 
ATOM      2  C   UNL     1       3.270  -6.877  -8.740  1.00  0.00    +0.202 C 
ATOM      3  C   UNL     1       3.174  -5.384  -8.473  1.00  0.00    +0.179 C 
ATOM      4  C   UNL     1       3.822  -4.621  -9.632  1.00  0.00    +0.177 C 
ATOM      5  C   UNL     1       5.073  -5.333 -10.198  1.00  0.00    +0.180 C 
ATOM      6  O   UNL     1       5.638  -6.275  -9.265  1.00  0.00    -0.341 OA
ENDROOT
BRANCH   1   7
ATOM      7  O   UNL     1       4.879  -8.530  -9.407  1.00  0.00    -0.341 OA
BRANCH   7   8
ATOM      8  C   UNL     1       4.924  -9.632  -8.506  1.00  0.00    +0.184 C 
ATOM      9  C   UNL     1       5.654 -11.764  -7.862  1.00  0.00    +0.195 C 
ATOM     10  C   UNL     1       6.103 -10.572  -8.708  1.00  0.00    +0.179 C 
ATOM     11  O   UNL     1       4.208 -11.803  -7.969  1.00  0.00    -0.370 OA
ATOM     12  O   UNL     1       6.259 -10.888 -10.103  1.00  0.00    -0.342 OA
ATOM     13  C   UNL     1       3.820 -10.651  -8.761  1.00  0.00    +0.184 C 
ATOM     14  C   UNL     1       5.154 -11.527 -10.732  1.00  0.00    +0.279 C 
ATOM     15  C   UNL     1       3.775 -11.023 -10.249  1.00  0.00    +0.202 C 
BRANCH  14  16
ATOM     16  O   UNL     1       5.265 -12.934 -10.533  1.00  0.00    -0.366 OA
ATOM     17  H   UNL     1       4.737 -13.110  -9.734  1.00  0.00    +0.213 HD
ENDBRANCH  14  16
BRANCH  15  18
ATOM     18  O   UNL     1       2.760 -12.007 -10.487  1.00  0.00    -0.385 OA
ATOM     19  H   UNL     1       3.120 -12.822 -10.074  1.00  0.00    +0.211 HD
ENDBRANCH  15  18
ENDBRANCH   7   8
ENDBRANCH   1   7
BRANCH   2  20
ATOM     20  O   UNL     1       2.541  -7.586  -7.723  1.00  0.00    -0.385 OA
ATOM     21  H   UNL     1       2.096  -8.328  -8.178  1.00  0.00    +0.211 HD
ENDBRANCH   2  20
BRANCH   3  22
ATOM     22  O   UNL     1       1.799  -4.984  -8.353  1.00  0.00    -0.387 OA
ATOM     23  H   UNL     1       1.802  -4.282  -7.668  1.00  0.00    +0.211 HD
ENDBRANCH   3  22
BRANCH   5  24
ATOM     24  C   UNL     1       4.896  -5.949 -11.598  1.00  0.00    +0.220 C 
BRANCH  24  25
ATOM     25  O   UNL     1       6.187  -6.188 -12.154  1.00  0.00    -0.245 OA
BRANCH  25  26
ATOM     26  S   UNL     1       6.589  -7.721 -12.503  1.00  0.00    +0.397 S 
ATOM     27  O   UNL     1       7.652  -7.742 -13.482  1.00  0.00    -0.169 OA
ATOM     28  O   UNL     1       5.372  -8.483 -12.671  1.00  0.00    -0.169 OA
BRANCH  26  29
ATOM     29  O   UNL     1       7.202  -8.232 -11.105  1.00  0.00    -0.264 OA
ATOM     30  H   UNL     1       8.048  -7.757 -10.975  1.00  0.00    +0.236 HD
ENDBRANCH  26  29
ENDBRANCH  25  26
ENDBRANCH  24  25
ENDBRANCH   5  24
BRANCH   4  31
ATOM     31  O   UNL     1       2.842  -4.395 -10.651  1.00  0.00    -0.387 OA
ATOM     32  H   UNL     1       2.467  -5.284 -10.840  1.00  0.00    +0.211 HD
ENDBRANCH   4  31
TORSDOF 11
ENDMDL
