MODEL 1
REMARK VINA RESULT:    -7.849      0.000      0.000
REMARK INTER + INTRA:         -26.153
REMARK INTER:                 -19.780
REMARK INTRA:                  -6.373
REMARK UNBOUND:                -6.373
REMARK SMILES N[C@@H]1[C@@H](O[C@@H]2[C@H](N)[C@H](O[C@@H]3O[C@H](CO)[C@@H](O)[C@H](O[C@@H]4O[C@@H](CO)[C@@H](O)[C@H](O)[C@H]4N)[C@H]3N)O[C@@H](CO[C@H]3O[C@@H](CO)[C@@H](O)[C@H](O)[C@H]3N)[C@H]2O[C@H]2O[C@@H](CO)[C@@H](O)[C@@H](O)[C@H]2N)O[C@H](CO)[C@H](O)[C@H]1O
REMARK SMILES IDX 33 1 47 2 5 3 6 4 8 5 32 6 34 7 35 8 36 9 38 10 41 11 37 12
REMARK SMILES IDX 43 13 45 14 39 15 40 16 42 18 44 20 46 22 48 25 49 26 58 27
REMARK SMILES IDX 50 28 56 29 51 30 54 31 59 32 57 35 52 37 53 38 55 40 4 42
REMARK SMILES IDX 3 43 2 44 60 45 66 46 61 47 64 48 1 49 67 52 62 54 63 55
REMARK SMILES IDX 65 57 9 59 10 60 30 61 11 62 17 63 12 64 15 65 31 66 18 69
REMARK SMILES IDX 19 70 28 71 20 72 26 73 21 74 24 75 29 76 27 79 22 81 23 82
REMARK SMILES IDX 25 84 13 86 14 87 16 89 7 91
REMARK H PARENT 40 17 42 19 44 21 46 23 46 24 59 33 59 34 57 36 53 39 55 41
REMARK H PARENT 1 50 1 51 67 53 63 56 65 58 31 67 31 68 29 77 29 78 27 80
REMARK H PARENT 23 83 25 85 14 88 16 90 7 92 7 93
ROOT
ATOM      1  C   UNL     1      -3.105  -7.016  -5.893  1.00  0.00    +0.179 C 
ATOM      2  C   UNL     1      -4.016  -7.111  -4.651  1.00  0.00    +0.183 C 
ATOM      3  C   UNL     1      -3.194  -7.052  -3.348  1.00  0.00    +0.175 C 
ATOM      4  C   UNL     1      -2.265  -5.819  -3.367  1.00  0.00    +0.140 C 
ATOM      5  C   UNL     1      -1.392  -5.867  -4.653  1.00  0.00    +0.273 C 
ATOM      6  O   UNL     1      -2.216  -5.887  -5.812  1.00  0.00    -0.342 OA
ENDROOT
BRANCH   1   7
ATOM      7  C   UNL     1      -2.347  -8.333  -6.189  1.00  0.00    +0.198 C 
BRANCH   7   8
ATOM      8  O   UNL     1      -2.183  -8.526  -7.598  1.00  0.00    -0.348 OA
BRANCH   8   9
ATOM      9  C   UNL     1      -2.467  -9.871  -8.010  1.00  0.00    +0.270 C 
ATOM     10  C   UNL     1      -3.154 -12.038  -7.189  1.00  0.00    +0.178 C 
ATOM     11  C   UNL     1      -3.197 -12.349  -8.695  1.00  0.00    +0.176 C 
ATOM     12  O   UNL     1      -2.781 -10.687  -6.885  1.00  0.00    -0.342 OA
ATOM     13  C   UNL     1      -3.977 -11.287  -9.484  1.00  0.00    +0.167 C 
ATOM     14  C   UNL     1      -3.647  -9.847  -9.029  1.00  0.00    +0.139 C 
BRANCH  10  15
ATOM     15  C   UNL     1      -4.454 -12.357  -6.433  1.00  0.00    +0.191 C 
BRANCH  15  16
ATOM     16  O   UNL     1      -5.012 -11.193  -5.827  1.00  0.00    -0.394 OA
ATOM     17  H   UNL     1      -5.909 -11.084  -6.191  1.00  0.00    +0.210 HD
ENDBRANCH  15  16
ENDBRANCH  10  15
BRANCH  11  18
ATOM     18  O   UNL     1      -3.713 -13.653  -8.988  1.00  0.00    -0.388 OA
ATOM     19  H   UNL     1      -3.090 -14.080  -9.604  1.00  0.00    +0.211 HD
ENDBRANCH  11  18
BRANCH  13  20
ATOM     20  O   UNL     1      -3.646 -11.446 -10.879  1.00  0.00    -0.388 OA
ATOM     21  H   UNL     1      -3.373 -12.379 -10.967  1.00  0.00    +0.211 HD
ENDBRANCH  13  20
BRANCH  14  22
ATOM     22  N   UNL     1      -4.859  -9.205  -8.436  1.00  0.00    -0.321 NA
ATOM     23  H   UNL     1      -5.334  -8.734  -9.223  1.00  0.00    +0.119 HD
ATOM     24  H   UNL     1      -5.512  -9.974  -8.206  1.00  0.00    +0.119 HD
ENDBRANCH  14  22
ENDBRANCH   8   9
ENDBRANCH   7   8
ENDBRANCH   1   7
BRANCH   2  25
ATOM     25  O   UNL     1      -4.754  -8.346  -4.678  1.00  0.00    -0.342 OA
BRANCH  25  26
ATOM     26  C   UNL     1      -6.147  -8.143  -4.945  1.00  0.00    +0.270 C 
ATOM     27  C   UNL     1      -6.957  -8.652  -3.711  1.00  0.00    +0.139 C 
ATOM     28  O   UNL     1      -6.536  -8.843  -6.125  1.00  0.00    -0.342 OA
ATOM     29  C   UNL     1      -8.483  -8.508  -3.968  1.00  0.00    +0.167 C 
ATOM     30  C   UNL     1      -7.936  -8.791  -6.432  1.00  0.00    +0.178 C 
ATOM     31  C   UNL     1      -8.781  -8.026  -5.393  1.00  0.00    +0.176 C 
BRANCH  27  32
ATOM     32  N   UNL     1      -6.546 -10.025  -3.314  1.00  0.00    -0.321 NA
ATOM     33  H   UNL     1      -5.674  -9.939  -2.781  1.00  0.00    +0.119 HD
ATOM     34  H   UNL     1      -7.227 -10.346  -2.622  1.00  0.00    +0.119 HD
ENDBRANCH  27  32
BRANCH  29  35
ATOM     35  O   UNL     1      -9.218  -9.730  -3.752  1.00  0.00    -0.388 OA
ATOM     36  H   UNL     1      -8.659 -10.248  -3.134  1.00  0.00    +0.211 HD
ENDBRANCH  29  35
BRANCH  30  37
ATOM     37  C   UNL     1      -8.420 -10.223  -6.745  1.00  0.00    +0.191 C 
BRANCH  37  38
ATOM     38  O   UNL     1      -7.836 -11.226  -5.917  1.00  0.00    -0.394 OA
ATOM     39  H   UNL     1      -7.906 -10.912  -4.987  1.00  0.00    +0.210 HD
ENDBRANCH  37  38
ENDBRANCH  30  37
BRANCH  31  40
ATOM     40  O   UNL     1     -10.187  -8.121  -5.643  1.00  0.00    -0.388 OA
ATOM     41  H   UNL     1     -10.309  -8.606  -6.480  1.00  0.00    +0.211 HD
ENDBRANCH  31  40
ENDBRANCH  25  26
ENDBRANCH   2  25
BRANCH   3  42
ATOM     42  O   UNL     1      -4.120  -7.056  -2.239  1.00  0.00    -0.343 OA
BRANCH  42  43
ATOM     43  C   UNL     1      -3.886  -8.090  -1.276  1.00  0.00    +0.270 C 
ATOM     44  C   UNL     1      -2.463  -7.865  -0.699  1.00  0.00    +0.139 C 
ATOM     45  O   UNL     1      -4.008  -9.354  -1.937  1.00  0.00    -0.342 OA
ATOM     46  C   UNL     1      -2.016  -9.066   0.147  1.00  0.00    +0.167 C 
ATOM     47  C   UNL     1      -3.651 -10.490  -1.142  1.00  0.00    +0.178 C 
ATOM     48  C   UNL     1      -2.203 -10.367  -0.636  1.00  0.00    +0.176 C 
BRANCH  44  49
ATOM     49  N   UNL     1      -2.388  -6.623   0.108  1.00  0.00    -0.321 NA
ATOM     50  H   UNL     1      -1.983  -6.857   1.015  1.00  0.00    +0.119 HD
ATOM     51  H   UNL     1      -3.351  -6.321   0.284  1.00  0.00    +0.119 HD
ENDBRANCH  44  49
BRANCH  46  52
ATOM     52  O   UNL     1      -0.628  -8.922   0.499  1.00  0.00    -0.388 OA
ATOM     53  H   UNL     1      -0.552  -9.312   1.393  1.00  0.00    +0.211 HD
ENDBRANCH  46  52
BRANCH  47  54
ATOM     54  C   UNL     1      -4.698 -10.771  -0.049  1.00  0.00    +0.191 C 
BRANCH  54  55
ATOM     55  O   UNL     1      -4.114 -10.659   1.245  1.00  0.00    -0.394 OA
ATOM     56  H   UNL     1      -3.343 -10.064   1.160  1.00  0.00    +0.210 HD
ENDBRANCH  54  55
ENDBRANCH  47  54
BRANCH  48  57
ATOM     57  O   UNL     1      -1.769 -11.463   0.178  1.00  0.00    -0.388 OA
ATOM     58  H   UNL     1      -1.257 -12.077  -0.396  1.00  0.00    +0.211 HD
ENDBRANCH  48  57
ENDBRANCH  42  43
ENDBRANCH   3  42
BRANCH   5  59
ATOM     59  O   UNL     1      -0.556  -4.707  -4.657  1.00  0.00    -0.320 OA
BRANCH  59  60
ATOM     60  C   UNL     1       0.602  -4.827  -5.484  1.00  0.00    +0.273 C 
ATOM     61  C   UNL     1       1.051  -3.446  -6.046  1.00  0.00    +0.140 C 
ATOM     62  O   UNL     1       1.617  -5.378  -4.631  1.00  0.00    -0.342 OA
ATOM     63  C   UNL     1       2.420  -3.597  -6.743  1.00  0.00    +0.174 C 
ATOM     64  C   UNL     1       2.865  -5.595  -5.310  1.00  0.00    +0.178 C 
ATOM     65  C   UNL     1       3.438  -4.272  -5.817  1.00  0.00    +0.176 C 
BRANCH  61  66
ATOM     66  N   UNL     1       0.089  -2.856  -6.998  1.00  0.00    -0.321 NA
ATOM     67  H   UNL     1       0.406  -1.908  -7.241  1.00  0.00    +0.119 HD
ATOM     68  H   UNL     1      -0.811  -2.724  -6.512  1.00  0.00    +0.119 HD
ENDBRANCH  61  66
BRANCH  63  69
ATOM     69  O   UNL     1       2.955  -2.302  -7.085  1.00  0.00    -0.343 OA
BRANCH  69  70
ATOM     70  C   UNL     1       2.890  -1.378  -5.995  1.00  0.00    +0.270 C 
ATOM     71  C   UNL     1       4.285  -0.711  -5.805  1.00  0.00    +0.139 C 
ATOM     72  O   UNL     1       1.832  -0.444  -6.259  1.00  0.00    -0.342 OA
ATOM     73  C   UNL     1       4.058   0.683  -5.212  1.00  0.00    +0.167 C 
ATOM     74  C   UNL     1       2.263   0.693  -7.024  1.00  0.00    +0.178 C 
ATOM     75  C   UNL     1       3.250   1.550  -6.193  1.00  0.00    +0.176 C 
BRANCH  71  76
ATOM     76  N   UNL     1       5.218  -1.518  -4.975  1.00  0.00    -0.321 NA
ATOM     77  H   UNL     1       6.162  -1.220  -5.248  1.00  0.00    +0.119 HD
ATOM     78  H   UNL     1       5.136  -1.193  -3.998  1.00  0.00    +0.119 HD
ENDBRANCH  71  76
BRANCH  73  79
ATOM     79  O   UNL     1       5.312   1.328  -4.930  1.00  0.00    -0.388 OA
ATOM     80  H   UNL     1       5.082   2.261  -4.759  1.00  0.00    +0.211 HD
ENDBRANCH  73  79
BRANCH  74  81
ATOM     81  C   UNL     1       1.018   1.451  -7.503  1.00  0.00    +0.191 C 
BRANCH  81  82
ATOM     82  O   UNL     1       1.369   2.739  -8.019  1.00  0.00    -0.394 OA
ATOM     83  H   UNL     1       2.195   3.003  -7.574  1.00  0.00    +0.210 HD
ENDBRANCH  81  82
ENDBRANCH  74  81
BRANCH  75  84
ATOM     84  O   UNL     1       2.649   2.597  -5.419  1.00  0.00    -0.388 OA
ATOM     85  H   UNL     1       3.366   3.012  -4.889  1.00  0.00    +0.211 HD
ENDBRANCH  75  84
ENDBRANCH  69  70
ENDBRANCH  63  69
BRANCH  64  86
ATOM     86  C   UNL     1       3.811  -6.271  -4.313  1.00  0.00    +0.191 C 
BRANCH  86  87
ATOM     87  O   UNL     1       4.847  -5.353  -3.946  1.00  0.00    -0.394 OA
ATOM     88  H   UNL     1       4.779  -4.629  -4.600  1.00  0.00    +0.210 HD
ENDBRANCH  86  87
ENDBRANCH  64  86
BRANCH  65  89
ATOM     89  O   UNL     1       4.658  -4.492  -6.534  1.00  0.00    -0.388 OA
ATOM     90  H   UNL     1       5.343  -4.642  -5.850  1.00  0.00    +0.211 HD
ENDBRANCH  65  89
ENDBRANCH  59  60
ENDBRANCH   5  59
BRANCH   4  91
ATOM     91  N   UNL     1      -3.046  -4.562  -3.252  1.00  0.00    -0.321 NA
ATOM     92  H   UNL     1      -3.255  -4.238  -4.200  1.00  0.00    +0.119 HD
ATOM     93  H   UNL     1      -2.445  -3.861  -2.814  1.00  0.00    +0.119 HD
ENDBRANCH   4  91
TORSDOF 36
ENDMDL
MODEL 2
REMARK VINA RESULT:    -7.233      3.611      6.835
REMARK INTER + INTRA:         -24.601
REMARK INTER:                 -17.478
REMARK INTRA:                  -7.123
REMARK UNBOUND:                -6.373
REMARK SMILES N[C@@H]1[C@@H](O[C@@H]2[C@H](N)[C@H](O[C@@H]3O[C@H](CO)[C@@H](O)[C@H](O[C@@H]4O[C@@H](CO)[C@@H](O)[C@H](O)[C@H]4N)[C@H]3N)O[C@@H](CO[C@H]3O[C@@H](CO)[C@@H](O)[C@H](O)[C@H]3N)[C@H]2O[C@H]2O[C@@H](CO)[C@@H](O)[C@@H](O)[C@H]2N)O[C@H](CO)[C@H](O)[C@H]1O
REMARK SMILES IDX 33 1 47 2 5 3 6 4 8 5 32 6 34 7 35 8 36 9 38 10 41 11 37 12
REMARK SMILES IDX 43 13 45 14 39 15 40 16 42 18 44 20 46 22 48 25 49 26 58 27
REMARK SMILES IDX 50 28 56 29 51 30 54 31 59 32 57 35 52 37 53 38 55 40 4 42
REMARK SMILES IDX 3 43 2 44 60 45 66 46 61 47 64 48 1 49 67 52 62 54 63 55
REMARK SMILES IDX 65 57 9 59 10 60 30 61 11 62 17 63 12 64 15 65 31 66 18 69
REMARK SMILES IDX 19 70 28 71 20 72 26 73 21 74 24 75 29 76 27 79 22 81 23 82
REMARK SMILES IDX 25 84 13 86 14 87 16 89 7 91
REMARK H PARENT 40 17 42 19 44 21 46 23 46 24 59 33 59 34 57 36 53 39 55 41
REMARK H PARENT 1 50 1 51 67 53 63 56 65 58 31 67 31 68 29 77 29 78 27 80
REMARK H PARENT 23 83 25 85 14 88 16 90 7 92 7 93
ROOT
ATOM      1  C   UNL     1      -4.607  -8.232  -6.130  1.00  0.00    +0.179 C 
ATOM      2  C   UNL     1      -5.726  -9.267  -5.895  1.00  0.00    +0.183 C 
ATOM      3  C   UNL     1      -5.773  -9.716  -4.420  1.00  0.00    +0.175 C 
ATOM      4  C   UNL     1      -5.840  -8.481  -3.496  1.00  0.00    +0.140 C 
ATOM      5  C   UNL     1      -4.645  -7.541  -3.824  1.00  0.00    +0.273 C 
ATOM      6  O   UNL     1      -4.686  -7.145  -5.189  1.00  0.00    -0.342 OA
ENDROOT
BRANCH   1   7
ATOM      7  C   UNL     1      -3.194  -8.864  -6.170  1.00  0.00    +0.198 C 
BRANCH   7   8
ATOM      8  O   UNL     1      -2.650  -8.824  -7.493  1.00  0.00    -0.348 OA
BRANCH   8   9
ATOM      9  C   UNL     1      -1.462  -9.619  -7.627  1.00  0.00    +0.270 C 
ATOM     10  C   UNL     1      -0.453 -11.712  -6.964  1.00  0.00    +0.178 C 
ATOM     11  C   UNL     1       0.623 -11.256  -7.963  1.00  0.00    +0.176 C 
ATOM     12  O   UNL     1      -1.559 -10.807  -6.846  1.00  0.00    -0.342 OA
ATOM     13  C   UNL     1       0.021 -10.819  -9.306  1.00  0.00    +0.167 C 
ATOM     14  C   UNL     1      -1.251  -9.957  -9.134  1.00  0.00    +0.139 C 
BRANCH  10  15
ATOM     15  C   UNL     1      -1.015 -13.119  -7.228  1.00  0.00    +0.191 C 
BRANCH  15  16
ATOM     16  O   UNL     1      -2.322 -13.069  -7.793  1.00  0.00    -0.394 OA
ATOM     17  H   UNL     1      -2.467 -12.155  -8.096  1.00  0.00    +0.210 HD
ENDBRANCH  15  16
ENDBRANCH  10  15
BRANCH  11  18
ATOM     18  O   UNL     1       1.644 -12.237  -8.181  1.00  0.00    -0.388 OA
ATOM     19  H   UNL     1       2.089 -12.012  -9.018  1.00  0.00    +0.211 HD
ENDBRANCH  11  18
BRANCH  13  20
ATOM     20  O   UNL     1       1.027 -10.068 -10.015  1.00  0.00    -0.388 OA
ATOM     21  H   UNL     1       1.604 -10.743 -10.421  1.00  0.00    +0.211 HD
ENDBRANCH  13  20
BRANCH  14  22
ATOM     22  N   UNL     1      -2.436 -10.672  -9.698  1.00  0.00    -0.321 NA
ATOM     23  H   UNL     1      -3.229 -10.019  -9.590  1.00  0.00    +0.119 HD
ATOM     24  H   UNL     1      -2.301 -10.695 -10.724  1.00  0.00    +0.119 HD
ENDBRANCH  14  22
ENDBRANCH   8   9
ENDBRANCH   7   8
ENDBRANCH   1   7
BRANCH   2  25
ATOM     25  O   UNL     1      -5.506 -10.423  -6.724  1.00  0.00    -0.342 OA
BRANCH  25  26
ATOM     26  C   UNL     1      -6.486 -10.544  -7.762  1.00  0.00    +0.270 C 
ATOM     27  C   UNL     1      -6.330 -11.953  -8.415  1.00  0.00    +0.139 C 
ATOM     28  O   UNL     1      -6.310  -9.517  -8.735  1.00  0.00    -0.342 OA
ATOM     29  C   UNL     1      -7.334 -12.120  -9.590  1.00  0.00    +0.167 C 
ATOM     30  C   UNL     1      -7.177  -9.601  -9.876  1.00  0.00    +0.178 C 
ATOM     31  C   UNL     1      -8.112 -10.828  -9.866  1.00  0.00    +0.176 C 
BRANCH  27  32
ATOM     32  N   UNL     1      -4.919 -12.229  -8.793  1.00  0.00    -0.321 NA
ATOM     33  H   UNL     1      -4.824 -12.017  -9.792  1.00  0.00    +0.119 HD
ATOM     34  H   UNL     1      -4.347 -11.516  -8.335  1.00  0.00    +0.119 HD
ENDBRANCH  27  32
BRANCH  29  35
ATOM     35  O   UNL     1      -6.709 -12.532 -10.823  1.00  0.00    -0.388 OA
ATOM     36  H   UNL     1      -7.458 -12.711 -11.430  1.00  0.00    +0.211 HD
ENDBRANCH  29  35
BRANCH  30  37
ATOM     37  C   UNL     1      -6.323  -9.437 -11.150  1.00  0.00    +0.191 C 
BRANCH  37  38
ATOM     38  O   UNL     1      -5.022 -10.013 -11.055  1.00  0.00    -0.394 OA
ATOM     39  H   UNL     1      -4.879 -10.254 -10.111  1.00  0.00    +0.210 HD
ENDBRANCH  37  38
ENDBRANCH  30  37
BRANCH  31  40
ATOM     40  O   UNL     1      -8.853 -10.970 -11.082  1.00  0.00    -0.388 OA
ATOM     41  H   UNL     1      -9.801 -10.895 -10.864  1.00  0.00    +0.211 HD
ENDBRANCH  31  40
ENDBRANCH  25  26
ENDBRANCH   2  25
BRANCH   3  42
ATOM     42  O   UNL     1      -6.896 -10.611  -4.264  1.00  0.00    -0.343 OA
BRANCH  42  43
ATOM     43  C   UNL     1      -6.744 -11.573  -3.215  1.00  0.00    +0.270 C 
ATOM     44  C   UNL     1      -7.763 -11.204  -2.105  1.00  0.00    +0.139 C 
ATOM     45  O   UNL     1      -5.393 -11.520  -2.748  1.00  0.00    -0.342 OA
ATOM     46  C   UNL     1      -7.503 -12.016  -0.827  1.00  0.00    +0.167 C 
ATOM     47  C   UNL     1      -5.118 -12.317  -1.592  1.00  0.00    +0.178 C 
ATOM     48  C   UNL     1      -6.031 -11.912  -0.421  1.00  0.00    +0.176 C 
BRANCH  44  49
ATOM     49  N   UNL     1      -9.163 -11.406  -2.554  1.00  0.00    -0.321 NA
ATOM     50  H   UNL     1      -9.768 -10.817  -1.981  1.00  0.00    +0.119 HD
ATOM     51  H   UNL     1      -9.408 -12.378  -2.342  1.00  0.00    +0.119 HD
ENDBRANCH  44  49
BRANCH  46  52
ATOM     52  O   UNL     1      -8.324 -11.513   0.243  1.00  0.00    -0.388 OA
ATOM     53  H   UNL     1      -9.153 -12.031   0.191  1.00  0.00    +0.211 HD
ENDBRANCH  46  52
BRANCH  47  54
ATOM     54  C   UNL     1      -5.121 -13.821  -1.924  1.00  0.00    +0.191 C 
BRANCH  54  55
ATOM     55  O   UNL     1      -4.615 -14.578  -0.829  1.00  0.00    -0.394 OA
ATOM     56  H   UNL     1      -4.016 -13.990  -0.328  1.00  0.00    +0.210 HD
ENDBRANCH  54  55
ENDBRANCH  47  54
BRANCH  48  57
ATOM     57  O   UNL     1      -5.826 -12.671   0.776  1.00  0.00    -0.388 OA
ATOM     58  H   UNL     1      -5.239 -13.428   0.553  1.00  0.00    +0.211 HD
ENDBRANCH  48  57
ENDBRANCH  42  43
ENDBRANCH   3  42
BRANCH   5  59
ATOM     59  O   UNL     1      -4.741  -6.399  -2.971  1.00  0.00    -0.320 OA
BRANCH  59  60
ATOM     60  C   UNL     1      -3.480  -5.902  -2.518  1.00  0.00    +0.273 C 
ATOM     61  C   UNL     1      -2.611  -7.031  -1.890  1.00  0.00    +0.140 C 
ATOM     62  O   UNL     1      -2.844  -5.368  -3.688  1.00  0.00    -0.342 OA
ATOM     63  C   UNL     1      -1.190  -6.494  -1.622  1.00  0.00    +0.174 C 
ATOM     64  C   UNL     1      -1.556  -4.792  -3.415  1.00  0.00    +0.178 C 
ATOM     65  C   UNL     1      -0.595  -5.855  -2.882  1.00  0.00    +0.176 C 
BRANCH  61  66
ATOM     66  N   UNL     1      -3.166  -7.573  -0.634  1.00  0.00    -0.321 NA
ATOM     67  H   UNL     1      -3.570  -6.797  -0.092  1.00  0.00    +0.119 HD
ATOM     68  H   UNL     1      -2.387  -7.928  -0.059  1.00  0.00    +0.119 HD
ENDBRANCH  61  66
BRANCH  63  69
ATOM     69  O   UNL     1      -0.309  -7.570  -1.241  1.00  0.00    -0.343 OA
BRANCH  69  70
ATOM     70  C   UNL     1      -0.211  -8.580  -2.249  1.00  0.00    +0.270 C 
ATOM     71  C   UNL     1       1.275  -9.029  -2.381  1.00  0.00    +0.139 C 
ATOM     72  O   UNL     1      -1.110  -9.646  -1.908  1.00  0.00    -0.342 OA
ATOM     73  C   UNL     1       1.282 -10.486  -2.855  1.00  0.00    +0.167 C 
ATOM     74  C   UNL     1      -0.514 -10.632  -1.050  1.00  0.00    +0.178 C 
ATOM     75  C   UNL     1       0.608 -11.387  -1.805  1.00  0.00    +0.176 C 
BRANCH  71  76
ATOM     76  N   UNL     1       2.079  -8.155  -3.275  1.00  0.00    -0.321 NA
ATOM     77  H   UNL     1       3.055  -8.446  -3.146  1.00  0.00    +0.119 HD
ATOM     78  H   UNL     1       1.876  -8.424  -4.251  1.00  0.00    +0.119 HD
ENDBRANCH  71  76
BRANCH  73  79
ATOM     79  O   UNL     1       2.626 -10.943  -3.081  1.00  0.00    -0.388 OA
ATOM     80  H   UNL     1       3.057 -10.900  -2.205  1.00  0.00    +0.211 HD
ENDBRANCH  73  79
BRANCH  74  81
ATOM     81  C   UNL     1      -1.629 -11.537  -0.510  1.00  0.00    +0.191 C 
BRANCH  81  82
ATOM     82  O   UNL     1      -2.617 -10.773   0.188  1.00  0.00    -0.394 OA
ATOM     83  H   UNL     1      -2.847 -10.020  -0.387  1.00  0.00    +0.210 HD
ENDBRANCH  81  82
ENDBRANCH  74  81
BRANCH  75  84
ATOM     84  O   UNL     1       0.193 -12.577  -2.489  1.00  0.00    -0.388 OA
ATOM     85  H   UNL     1       0.368 -12.435  -3.447  1.00  0.00    +0.211 HD
ENDBRANCH  75  84
ENDBRANCH  69  70
ENDBRANCH  63  69
BRANCH  64  86
ATOM     86  C   UNL     1      -1.047  -4.181  -4.723  1.00  0.00    +0.191 C 
BRANCH  86  87
ATOM     87  O   UNL     1      -0.258  -3.022  -4.430  1.00  0.00    -0.394 OA
ATOM     88  H   UNL     1       0.665  -3.306  -4.581  1.00  0.00    +0.210 HD
ENDBRANCH  86  87
ENDBRANCH  64  86
BRANCH  65  89
ATOM     89  O   UNL     1       0.675  -5.273  -2.565  1.00  0.00    -0.388 OA
ATOM     90  H   UNL     1       1.316  -6.014  -2.582  1.00  0.00    +0.211 HD
ENDBRANCH  65  89
ENDBRANCH  59  60
ENDBRANCH   5  59
BRANCH   4  91
ATOM     91  N   UNL     1      -7.153  -7.799  -3.615  1.00  0.00    -0.321 NA
ATOM     92  H   UNL     1      -7.757  -8.386  -4.195  1.00  0.00    +0.119 HD
ATOM     93  H   UNL     1      -7.003  -6.921  -4.119  1.00  0.00    +0.119 HD
ENDBRANCH   4  91
TORSDOF 36
ENDMDL
MODEL 3
REMARK VINA RESULT:    -7.196      1.473      2.196
REMARK INTER + INTRA:         -24.507
REMARK INTER:                 -20.901
REMARK INTRA:                  -3.606
REMARK UNBOUND:                -6.373
REMARK SMILES N[C@@H]1[C@@H](O[C@@H]2[C@H](N)[C@H](O[C@@H]3O[C@H](CO)[C@@H](O)[C@H](O[C@@H]4O[C@@H](CO)[C@@H](O)[C@H](O)[C@H]4N)[C@H]3N)O[C@@H](CO[C@H]3O[C@@H](CO)[C@@H](O)[C@H](O)[C@H]3N)[C@H]2O[C@H]2O[C@@H](CO)[C@@H](O)[C@@H](O)[C@H]2N)O[C@H](CO)[C@H](O)[C@H]1O
REMARK SMILES IDX 33 1 47 2 5 3 6 4 8 5 32 6 34 7 35 8 36 9 38 10 41 11 37 12
REMARK SMILES IDX 43 13 45 14 39 15 40 16 42 18 44 20 46 22 48 25 49 26 58 27
REMARK SMILES IDX 50 28 56 29 51 30 54 31 59 32 57 35 52 37 53 38 55 40 4 42
REMARK SMILES IDX 3 43 2 44 60 45 66 46 61 47 64 48 1 49 67 52 62 54 63 55
REMARK SMILES IDX 65 57 9 59 10 60 30 61 11 62 17 63 12 64 15 65 31 66 18 69
REMARK SMILES IDX 19 70 28 71 20 72 26 73 21 74 24 75 29 76 27 79 22 81 23 82
REMARK SMILES IDX 25 84 13 86 14 87 16 89 7 91
REMARK H PARENT 40 17 42 19 44 21 46 23 46 24 59 33 59 34 57 36 53 39 55 41
REMARK H PARENT 1 50 1 51 67 53 63 56 65 58 31 67 31 68 29 77 29 78 27 80
REMARK H PARENT 23 83 25 85 14 88 16 90 7 92 7 93
ROOT
ATOM      1  C   UNL     1      -2.700  -6.550  -5.560  1.00  0.00    +0.179 C 
ATOM      2  C   UNL     1      -3.667  -6.861  -4.399  1.00  0.00    +0.183 C 
ATOM      3  C   UNL     1      -2.939  -6.828  -3.040  1.00  0.00    +0.175 C 
ATOM      4  C   UNL     1      -2.165  -5.500  -2.889  1.00  0.00    +0.140 C 
ATOM      5  C   UNL     1      -1.216  -5.330  -4.110  1.00  0.00    +0.273 C 
ATOM      6  O   UNL     1      -1.960  -5.339  -5.322  1.00  0.00    -0.342 OA
ENDROOT
BRANCH   1   7
ATOM      7  C   UNL     1      -1.772  -7.738  -5.911  1.00  0.00    +0.198 C 
BRANCH   7   8
ATOM      8  O   UNL     1      -2.287  -8.482  -7.020  1.00  0.00    -0.348 OA
BRANCH   8   9
ATOM      9  C   UNL     1      -1.429  -9.566  -7.406  1.00  0.00    +0.270 C 
ATOM     10  C   UNL     1      -1.145 -11.960  -7.235  1.00  0.00    +0.178 C 
ATOM     11  C   UNL     1      -0.005 -11.673  -8.226  1.00  0.00    +0.176 C 
ATOM     12  O   UNL     1      -1.889 -10.796  -6.851  1.00  0.00    -0.342 OA
ATOM     13  C   UNL     1      -0.466 -10.805  -9.405  1.00  0.00    +0.167 C 
ATOM     14  C   UNL     1      -1.380  -9.640  -8.963  1.00  0.00    +0.139 C 
BRANCH  10  15
ATOM     15  C   UNL     1      -2.143 -13.033  -7.700  1.00  0.00    +0.191 C 
BRANCH  15  16
ATOM     16  O   UNL     1      -2.011 -13.309  -9.092  1.00  0.00    -0.394 OA
ATOM     17  H   UNL     1      -1.057 -13.320  -9.292  1.00  0.00    +0.210 HD
ENDBRANCH  15  16
ENDBRANCH  10  15
BRANCH  11  18
ATOM     18  O   UNL     1       0.632 -12.861  -8.713  1.00  0.00    -0.388 OA
ATOM     19  H   UNL     1       0.165 -13.129  -9.525  1.00  0.00    +0.211 HD
ENDBRANCH  11  18
BRANCH  13  20
ATOM     20  O   UNL     1       0.712 -10.282 -10.053  1.00  0.00    -0.388 OA
ATOM     21  H   UNL     1       1.067 -11.031 -10.569  1.00  0.00    +0.211 HD
ENDBRANCH  13  20
BRANCH  14  22
ATOM     22  N   UNL     1      -2.749  -9.813  -9.538  1.00  0.00    -0.321 NA
ATOM     23  H   UNL     1      -2.602 -10.174 -10.495  1.00  0.00    +0.119 HD
ATOM     24  H   UNL     1      -3.168 -10.625  -9.052  1.00  0.00    +0.119 HD
ENDBRANCH  14  22
ENDBRANCH   8   9
ENDBRANCH   7   8
ENDBRANCH   1   7
BRANCH   2  25
ATOM     25  O   UNL     1      -4.248  -8.165  -4.581  1.00  0.00    -0.342 OA
BRANCH  25  26
ATOM     26  C   UNL     1      -5.602  -8.098  -5.047  1.00  0.00    +0.270 C 
ATOM     27  C   UNL     1      -6.532  -8.625  -3.909  1.00  0.00    +0.139 C 
ATOM     28  O   UNL     1      -5.761  -8.879  -6.229  1.00  0.00    -0.342 OA
ATOM     29  C   UNL     1      -8.013  -8.628  -4.380  1.00  0.00    +0.167 C 
ATOM     30  C   UNL     1      -7.104  -8.965  -6.727  1.00  0.00    +0.178 C 
ATOM     31  C   UNL     1      -8.147  -8.235  -5.856  1.00  0.00    +0.176 C 
BRANCH  27  32
ATOM     32  N   UNL     1      -6.070  -9.938  -3.386  1.00  0.00    -0.321 NA
ATOM     33  H   UNL     1      -5.522  -9.751  -2.539  1.00  0.00    +0.119 HD
ATOM     34  H   UNL     1      -6.900 -10.425  -3.041  1.00  0.00    +0.119 HD
ENDBRANCH  27  32
BRANCH  29  35
ATOM     35  O   UNL     1      -8.668  -9.901  -4.201  1.00  0.00    -0.388 OA
ATOM     36  H   UNL     1      -9.599  -9.672  -3.992  1.00  0.00    +0.211 HD
ENDBRANCH  29  35
BRANCH  30  37
ATOM     37  C   UNL     1      -7.419 -10.446  -7.025  1.00  0.00    +0.191 C 
BRANCH  37  38
ATOM     38  O   UNL     1      -8.538 -10.637  -7.889  1.00  0.00    -0.394 OA
ATOM     39  H   UNL     1      -8.265 -11.283  -8.580  1.00  0.00    +0.210 HD
ENDBRANCH  37  38
ENDBRANCH  30  37
BRANCH  31  40
ATOM     40  O   UNL     1      -9.491  -8.465  -6.290  1.00  0.00    -0.388 OA
ATOM     41  H   UNL     1      -9.455  -9.037  -7.080  1.00  0.00    +0.211 HD
ENDBRANCH  31  40
ENDBRANCH  25  26
ENDBRANCH   2  25
BRANCH   3  42
ATOM     42  O   UNL     1      -3.923  -7.039  -2.004  1.00  0.00    -0.343 OA
BRANCH  42  43
ATOM     43  C   UNL     1      -3.608  -8.101  -1.096  1.00  0.00    +0.270 C 
ATOM     44  C   UNL     1      -2.141  -7.889  -0.636  1.00  0.00    +0.139 C 
ATOM     45  O   UNL     1      -3.787  -9.344  -1.780  1.00  0.00    -0.342 OA
ATOM     46  C   UNL     1      -1.624  -9.114   0.133  1.00  0.00    +0.167 C 
ATOM     47  C   UNL     1      -3.364 -10.503  -1.053  1.00  0.00    +0.178 C 
ATOM     48  C   UNL     1      -1.877 -10.392  -0.669  1.00  0.00    +0.176 C 
BRANCH  44  49
ATOM     49  N   UNL     1      -1.997  -6.671   0.198  1.00  0.00    -0.321 NA
ATOM     50  H   UNL     1      -1.028  -6.617   0.517  1.00  0.00    +0.119 HD
ATOM     51  H   UNL     1      -2.575  -6.810   1.033  1.00  0.00    +0.119 HD
ENDBRANCH  44  49
BRANCH  46  52
ATOM     52  O   UNL     1      -0.211  -8.978   0.368  1.00  0.00    -0.388 OA
ATOM     53  H   UNL     1       0.197  -8.996  -0.521  1.00  0.00    +0.211 HD
ENDBRANCH  46  52
BRANCH  47  54
ATOM     54  C   UNL     1      -4.314 -10.818   0.118  1.00  0.00    +0.191 C 
BRANCH  54  55
ATOM     55  O   UNL     1      -4.960 -12.071  -0.084  1.00  0.00    -0.394 OA
ATOM     56  H   UNL     1      -5.589 -12.190   0.654  1.00  0.00    +0.210 HD
ENDBRANCH  54  55
ENDBRANCH  47  54
BRANCH  48  57
ATOM     57  O   UNL     1      -1.376 -11.511   0.072  1.00  0.00    -0.388 OA
ATOM     58  H   UNL     1      -1.354 -12.285  -0.534  1.00  0.00    +0.211 HD
ENDBRANCH  48  57
ENDBRANCH  42  43
ENDBRANCH   3  42
BRANCH   5  59
ATOM     59  O   UNL     1      -0.528  -4.087  -3.957  1.00  0.00    -0.320 OA
BRANCH  59  60
ATOM     60  C   UNL     1       0.340  -3.764  -5.045  1.00  0.00    +0.273 C 
ATOM     61  C   UNL     1       1.007  -2.370  -4.854  1.00  0.00    +0.140 C 
ATOM     62  O   UNL     1       1.333  -4.801  -5.054  1.00  0.00    -0.342 OA
ATOM     63  C   UNL     1       2.092  -2.169  -5.933  1.00  0.00    +0.174 C 
ATOM     64  C   UNL     1       2.291  -4.653  -6.115  1.00  0.00    +0.178 C 
ATOM     65  C   UNL     1       3.070  -3.348  -5.956  1.00  0.00    +0.176 C 
BRANCH  61  66
ATOM     66  N   UNL     1       0.051  -1.246  -4.916  1.00  0.00    -0.321 NA
ATOM     67  H   UNL     1       0.051  -0.764  -4.007  1.00  0.00    +0.119 HD
ATOM     68  H   UNL     1      -0.899  -1.632  -5.017  1.00  0.00    +0.119 HD
ENDBRANCH  61  66
BRANCH  63  69
ATOM     69  O   UNL     1       2.866  -0.985  -5.652  1.00  0.00    -0.343 OA
BRANCH  69  70
ATOM     70  C   UNL     1       3.013  -0.143  -6.798  1.00  0.00    +0.270 C 
ATOM     71  C   UNL     1       1.642   0.523  -7.123  1.00  0.00    +0.139 C 
ATOM     72  O   UNL     1       4.066   0.797  -6.536  1.00  0.00    -0.342 OA
ATOM     73  C   UNL     1       1.926   1.869  -7.798  1.00  0.00    +0.167 C 
ATOM     74  C   UNL     1       3.605   1.991  -5.883  1.00  0.00    +0.178 C 
ATOM     75  C   UNL     1       2.684   2.796  -6.833  1.00  0.00    +0.176 C 
BRANCH  71  76
ATOM     76  N   UNL     1       0.750  -0.331  -7.950  1.00  0.00    -0.321 NA
ATOM     77  H   UNL     1       0.026  -0.680  -7.312  1.00  0.00    +0.119 HD
ATOM     78  H   UNL     1       0.228   0.284  -8.594  1.00  0.00    +0.119 HD
ENDBRANCH  71  76
BRANCH  73  79
ATOM     79  O   UNL     1       0.701   2.504  -8.204  1.00  0.00    -0.388 OA
ATOM     80  H   UNL     1       0.881   2.846  -9.101  1.00  0.00    +0.211 HD
ENDBRANCH  73  79
BRANCH  74  81
ATOM     81  C   UNL     1       4.829   2.768  -5.381  1.00  0.00    +0.191 C 
BRANCH  81  82
ATOM     82  O   UNL     1       6.024   1.997  -5.533  1.00  0.00    -0.394 OA
ATOM     83  H   UNL     1       5.930   1.493  -6.362  1.00  0.00    +0.210 HD
ENDBRANCH  81  82
ENDBRANCH  74  81
BRANCH  75  84
ATOM     84  O   UNL     1       3.348   3.778  -7.641  1.00  0.00    -0.388 OA
ATOM     85  H   UNL     1       3.003   4.658  -7.367  1.00  0.00    +0.211 HD
ENDBRANCH  75  84
ENDBRANCH  69  70
ENDBRANCH  63  69
BRANCH  64  86
ATOM     86  C   UNL     1       3.218  -5.871  -6.061  1.00  0.00    +0.191 C 
BRANCH  86  87
ATOM     87  O   UNL     1       4.526  -5.453  -5.655  1.00  0.00    -0.394 OA
ATOM     88  H   UNL     1       4.631  -4.561  -6.041  1.00  0.00    +0.210 HD
ENDBRANCH  86  87
ENDBRANCH  64  86
BRANCH  65  89
ATOM     89  O   UNL     1       3.994  -3.177  -7.039  1.00  0.00    -0.388 OA
ATOM     90  H   UNL     1       4.884  -3.267  -6.643  1.00  0.00    +0.211 HD
ENDBRANCH  65  89
ENDBRANCH  59  60
ENDBRANCH   5  59
BRANCH   4  91
ATOM     91  N   UNL     1      -3.098  -4.357  -2.726  1.00  0.00    -0.321 NA
ATOM     92  H   UNL     1      -2.642  -3.667  -2.124  1.00  0.00    +0.119 HD
ATOM     93  H   UNL     1      -3.924  -4.699  -2.230  1.00  0.00    +0.119 HD
ENDBRANCH   4  91
TORSDOF 36
ENDMDL
MODEL 4
REMARK VINA RESULT:    -7.105      8.796     18.967
REMARK INTER + INTRA:         -24.277
REMARK INTER:                 -18.950
REMARK INTRA:                  -5.327
REMARK UNBOUND:                -6.373
REMARK SMILES N[C@@H]1[C@@H](O[C@@H]2[C@H](N)[C@H](O[C@@H]3O[C@H](CO)[C@@H](O)[C@H](O[C@@H]4O[C@@H](CO)[C@@H](O)[C@H](O)[C@H]4N)[C@H]3N)O[C@@H](CO[C@H]3O[C@@H](CO)[C@@H](O)[C@H](O)[C@H]3N)[C@H]2O[C@H]2O[C@@H](CO)[C@@H](O)[C@@H](O)[C@H]2N)O[C@H](CO)[C@H](O)[C@H]1O
REMARK SMILES IDX 33 1 47 2 5 3 6 4 8 5 32 6 34 7 35 8 36 9 38 10 41 11 37 12
REMARK SMILES IDX 43 13 45 14 39 15 40 16 42 18 44 20 46 22 48 25 49 26 58 27
REMARK SMILES IDX 50 28 56 29 51 30 54 31 59 32 57 35 52 37 53 38 55 40 4 42
REMARK SMILES IDX 3 43 2 44 60 45 66 46 61 47 64 48 1 49 67 52 62 54 63 55
REMARK SMILES IDX 65 57 9 59 10 60 30 61 11 62 17 63 12 64 15 65 31 66 18 69
REMARK SMILES IDX 19 70 28 71 20 72 26 73 21 74 24 75 29 76 27 79 22 81 23 82
REMARK SMILES IDX 25 84 13 86 14 87 16 89 7 91
REMARK H PARENT 40 17 42 19 44 21 46 23 46 24 59 33 59 34 57 36 53 39 55 41
REMARK H PARENT 1 50 1 51 67 53 63 56 65 58 31 67 31 68 29 77 29 78 27 80
REMARK H PARENT 23 83 25 85 14 88 16 90 7 92 7 93
ROOT
ATOM      1  C   UNL     1       5.719   8.971  -7.235  1.00  0.00    +0.179 C 
ATOM      2  C   UNL     1       5.840  10.071  -6.159  1.00  0.00    +0.183 C 
ATOM      3  C   UNL     1       4.529  10.222  -5.361  1.00  0.00    +0.175 C 
ATOM      4  C   UNL     1       4.080   8.846  -4.822  1.00  0.00    +0.140 C 
ATOM      5  C   UNL     1       3.976   7.849  -6.011  1.00  0.00    +0.273 C 
ATOM      6  O   UNL     1       5.227   7.739  -6.677  1.00  0.00    -0.342 OA
ENDROOT
BRANCH   1   7
ATOM      7  C   UNL     1       4.897   9.419  -8.469  1.00  0.00    +0.198 C 
BRANCH   7   8
ATOM      8  O   UNL     1       4.340   8.291  -9.152  1.00  0.00    -0.348 OA
BRANCH   8   9
ATOM      9  C   UNL     1       5.307   7.598  -9.956  1.00  0.00    +0.270 C 
ATOM     10  C   UNL     1       5.670   5.571 -11.220  1.00  0.00    +0.178 C 
ATOM     11  C   UNL     1       6.958   6.311 -11.616  1.00  0.00    +0.176 C 
ATOM     12  O   UNL     1       4.812   6.321 -10.349  1.00  0.00    -0.342 OA
ATOM     13  C   UNL     1       6.681   7.746 -12.088  1.00  0.00    +0.167 C 
ATOM     14  C   UNL     1       5.646   8.473 -11.200  1.00  0.00    +0.139 C 
BRANCH  10  15
ATOM     15  C   UNL     1       4.828   5.073 -12.407  1.00  0.00    +0.191 C 
BRANCH  15  16
ATOM     16  O   UNL     1       3.606   5.797 -12.528  1.00  0.00    -0.394 OA
ATOM     17  H   UNL     1       3.137   5.709 -11.679  1.00  0.00    +0.210 HD
ENDBRANCH  15  16
ENDBRANCH  10  15
BRANCH  11  18
ATOM     18  O   UNL     1       7.731   5.612 -12.600  1.00  0.00    -0.388 OA
ATOM     19  H   UNL     1       7.242   5.661 -13.442  1.00  0.00    +0.211 HD
ENDBRANCH  11  18
BRANCH  13  20
ATOM     20  O   UNL     1       7.932   8.463 -12.067  1.00  0.00    -0.388 OA
ATOM     21  H   UNL     1       8.619   7.770 -12.051  1.00  0.00    +0.211 HD
ENDBRANCH  13  20
BRANCH  14  22
ATOM     22  N   UNL     1       4.418   8.784 -11.993  1.00  0.00    -0.321 NA
ATOM     23  H   UNL     1       4.751   8.997 -12.947  1.00  0.00    +0.119 HD
ATOM     24  H   UNL     1       3.920   7.885 -12.123  1.00  0.00    +0.119 HD
ENDBRANCH  14  22
ENDBRANCH   8   9
ENDBRANCH   7   8
ENDBRANCH   1   7
BRANCH   2  25
ATOM     25  O   UNL     1       6.151  11.331  -6.781  1.00  0.00    -0.342 OA
BRANCH  25  26
ATOM     26  C   UNL     1       7.506  11.735  -6.547  1.00  0.00    +0.270 C 
ATOM     27  C   UNL     1       8.112  12.209  -7.905  1.00  0.00    +0.139 C 
ATOM     28  O   UNL     1       8.263  10.653  -6.009  1.00  0.00    -0.342 OA
ATOM     29  C   UNL     1       9.604  12.608  -7.722  1.00  0.00    +0.167 C 
ATOM     30  C   UNL     1       9.661  10.915  -5.829  1.00  0.00    +0.178 C 
ATOM     31  C   UNL     1      10.105  12.315  -6.302  1.00  0.00    +0.176 C 
BRANCH  27  32
ATOM     32  N   UNL     1       7.890  11.211  -8.984  1.00  0.00    -0.321 NA
ATOM     33  H   UNL     1       8.426  11.522  -9.801  1.00  0.00    +0.119 HD
ATOM     34  H   UNL     1       8.362  10.353  -8.691  1.00  0.00    +0.119 HD
ENDBRANCH  27  32
BRANCH  29  35
ATOM     35  O   UNL     1      10.490  11.949  -8.649  1.00  0.00    -0.388 OA
ATOM     36  H   UNL     1      10.639  12.609  -9.359  1.00  0.00    +0.211 HD
ENDBRANCH  29  35
BRANCH  30  37
ATOM     37  C   UNL     1      10.460   9.737  -6.425  1.00  0.00    +0.191 C 
BRANCH  37  38
ATOM     38  O   UNL     1      11.814   9.672  -5.982  1.00  0.00    -0.394 OA
ATOM     39  H   UNL     1      11.930  10.370  -5.298  1.00  0.00    +0.210 HD
ENDBRANCH  37  38
ENDBRANCH  30  37
BRANCH  31  40
ATOM     40  O   UNL     1      11.525  12.493  -6.254  1.00  0.00    -0.388 OA
ATOM     41  H   UNL     1      11.919  11.657  -5.939  1.00  0.00    +0.211 HD
ENDBRANCH  31  40
ENDBRANCH  25  26
ENDBRANCH   2  25
BRANCH   3  42
ATOM     42  O   UNL     1       4.752  11.201  -4.323  1.00  0.00    -0.343 OA
BRANCH  42  43
ATOM     43  C   UNL     1       3.721  12.189  -4.212  1.00  0.00    +0.270 C 
ATOM     44  C   UNL     1       4.212  13.248  -3.189  1.00  0.00    +0.139 C 
ATOM     45  O   UNL     1       2.520  11.540  -3.784  1.00  0.00    -0.342 OA
ATOM     46  C   UNL     1       3.077  14.208  -2.804  1.00  0.00    +0.167 C 
ATOM     47  C   UNL     1       1.432  12.418  -3.477  1.00  0.00    +0.178 C 
ATOM     48  C   UNL     1       1.835  13.422  -2.381  1.00  0.00    +0.176 C 
BRANCH  44  49
ATOM     49  N   UNL     1       5.370  14.018  -3.707  1.00  0.00    -0.321 NA
ATOM     50  H   UNL     1       5.225  14.177  -4.705  1.00  0.00    +0.119 HD
ATOM     51  H   UNL     1       6.193  13.414  -3.621  1.00  0.00    +0.119 HD
ENDBRANCH  44  49
BRANCH  46  52
ATOM     52  O   UNL     1       3.499  15.046  -1.712  1.00  0.00    -0.388 OA
ATOM     53  H   UNL     1       2.838  14.894  -1.007  1.00  0.00    +0.211 HD
ENDBRANCH  46  52
BRANCH  47  54
ATOM     54  C   UNL     1       0.836  13.051  -4.748  1.00  0.00    +0.191 C 
BRANCH  54  55
ATOM     55  O   UNL     1      -0.155  12.200  -5.315  1.00  0.00    -0.394 OA
ATOM     56  H   UNL     1      -0.742  12.765  -5.854  1.00  0.00    +0.210 HD
ENDBRANCH  54  55
ENDBRANCH  47  54
BRANCH  48  57
ATOM     57  O   UNL     1       0.801  14.346  -2.021  1.00  0.00    -0.388 OA
ATOM     58  H   UNL     1       0.952  14.613  -1.087  1.00  0.00    +0.211 HD
ENDBRANCH  48  57
ENDBRANCH  42  43
ENDBRANCH   3  42
BRANCH   5  59
ATOM     59  O   UNL     1       3.579   6.581  -5.483  1.00  0.00    -0.320 OA
BRANCH  59  60
ATOM     60  C   UNL     1       3.564   5.528  -6.448  1.00  0.00    +0.273 C 
ATOM     61  C   UNL     1       3.348   4.139  -5.778  1.00  0.00    +0.140 C 
ATOM     62  O   UNL     1       2.472   5.839  -7.327  1.00  0.00    -0.342 OA
ATOM     63  C   UNL     1       3.119   3.074  -6.871  1.00  0.00    +0.174 C 
ATOM     64  C   UNL     1       2.318   4.887  -8.392  1.00  0.00    +0.178 C 
ATOM     65  C   UNL     1       2.004   3.500  -7.832  1.00  0.00    +0.176 C 
BRANCH  61  66
ATOM     66  N   UNL     1       4.474   3.717  -4.922  1.00  0.00    -0.321 NA
ATOM     67  H   UNL     1       4.691   2.732  -5.126  1.00  0.00    +0.119 HD
ATOM     68  H   UNL     1       4.158   3.726  -3.940  1.00  0.00    +0.119 HD
ENDBRANCH  61  66
BRANCH  63  69
ATOM     69  O   UNL     1       2.708   1.825  -6.277  1.00  0.00    -0.343 OA
BRANCH  69  70
ATOM     70  C   UNL     1       3.450   0.710  -6.779  1.00  0.00    +0.270 C 
ATOM     71  C   UNL     1       4.299   0.100  -5.624  1.00  0.00    +0.139 C 
ATOM     72  O   UNL     1       2.528  -0.216  -7.372  1.00  0.00    -0.342 OA
ATOM     73  C   UNL     1       4.485  -1.392  -5.920  1.00  0.00    +0.167 C 
ATOM     74  C   UNL     1       1.997  -1.162  -6.431  1.00  0.00    +0.178 C 
ATOM     75  C   UNL     1       3.121  -2.104  -5.931  1.00  0.00    +0.176 C 
BRANCH  71  76
ATOM     76  N   UNL     1       5.601   0.787  -5.420  1.00  0.00    -0.321 NA
ATOM     77  H   UNL     1       5.552   1.207  -4.485  1.00  0.00    +0.119 HD
ATOM     78  H   UNL     1       6.331   0.063  -5.320  1.00  0.00    +0.119 HD
ENDBRANCH  71  76
BRANCH  73  79
ATOM     79  O   UNL     1       5.334  -2.006  -4.936  1.00  0.00    -0.388 OA
ATOM     80  H   UNL     1       5.013  -2.926  -4.866  1.00  0.00    +0.211 HD
ENDBRANCH  73  79
BRANCH  74  81
ATOM     81  C   UNL     1       0.815  -1.886  -7.090  1.00  0.00    +0.191 C 
BRANCH  81  82
ATOM     82  O   UNL     1       1.208  -2.490  -8.326  1.00  0.00    -0.394 OA
ATOM     83  H   UNL     1       2.154  -2.290  -8.447  1.00  0.00    +0.210 HD
ENDBRANCH  81  82
ENDBRANCH  74  81
BRANCH  75  84
ATOM     84  O   UNL     1       3.291  -3.310  -6.688  1.00  0.00    -0.388 OA
ATOM     85  H   UNL     1       2.888  -4.038  -6.164  1.00  0.00    +0.211 HD
ENDBRANCH  75  84
ENDBRANCH  69  70
ENDBRANCH  63  69
BRANCH  64  86
ATOM     86  C   UNL     1       1.191   5.397  -9.295  1.00  0.00    +0.191 C 
BRANCH  86  87
ATOM     87  O   UNL     1       1.752   6.171 -10.361  1.00  0.00    -0.394 OA
ATOM     88  H   UNL     1       1.288   5.858 -11.164  1.00  0.00    +0.210 HD
ENDBRANCH  86  87
ENDBRANCH  64  86
BRANCH  65  89
ATOM     89  O   UNL     1       1.897   2.541  -8.890  1.00  0.00    -0.388 OA
ATOM     90  H   UNL     1       1.547   3.035  -9.660  1.00  0.00    +0.211 HD
ENDBRANCH  65  89
ENDBRANCH  59  60
ENDBRANCH   5  59
BRANCH   4  91
ATOM     91  N   UNL     1       4.995   8.370  -3.754  1.00  0.00    -0.321 NA
ATOM     92  H   UNL     1       5.756   7.855  -4.204  1.00  0.00    +0.119 HD
ATOM     93  H   UNL     1       4.477   7.706  -3.174  1.00  0.00    +0.119 HD
ENDBRANCH   4  91
TORSDOF 36
ENDMDL
MODEL 5
REMARK VINA RESULT:    -6.863      8.888     18.796
REMARK INTER + INTRA:         -23.667
REMARK INTER:                 -18.018
REMARK INTRA:                  -5.649
REMARK UNBOUND:                -6.373
REMARK SMILES N[C@@H]1[C@@H](O[C@@H]2[C@H](N)[C@H](O[C@@H]3O[C@H](CO)[C@@H](O)[C@H](O[C@@H]4O[C@@H](CO)[C@@H](O)[C@H](O)[C@H]4N)[C@H]3N)O[C@@H](CO[C@H]3O[C@@H](CO)[C@@H](O)[C@H](O)[C@H]3N)[C@H]2O[C@H]2O[C@@H](CO)[C@@H](O)[C@@H](O)[C@H]2N)O[C@H](CO)[C@H](O)[C@H]1O
REMARK SMILES IDX 33 1 47 2 5 3 6 4 8 5 32 6 34 7 35 8 36 9 38 10 41 11 37 12
REMARK SMILES IDX 43 13 45 14 39 15 40 16 42 18 44 20 46 22 48 25 49 26 58 27
REMARK SMILES IDX 50 28 56 29 51 30 54 31 59 32 57 35 52 37 53 38 55 40 4 42
REMARK SMILES IDX 3 43 2 44 60 45 66 46 61 47 64 48 1 49 67 52 62 54 63 55
REMARK SMILES IDX 65 57 9 59 10 60 30 61 11 62 17 63 12 64 15 65 31 66 18 69
REMARK SMILES IDX 19 70 28 71 20 72 26 73 21 74 24 75 29 76 27 79 22 81 23 82
REMARK SMILES IDX 25 84 13 86 14 87 16 89 7 91
REMARK H PARENT 40 17 42 19 44 21 46 23 46 24 59 33 59 34 57 36 53 39 55 41
REMARK H PARENT 1 50 1 51 67 53 63 56 65 58 31 67 31 68 29 77 29 78 27 80
REMARK H PARENT 23 83 25 85 14 88 16 90 7 92 7 93
ROOT
ATOM      1  C   UNL     1       4.914   7.715 -10.442  1.00  0.00    +0.179 C 
ATOM      2  C   UNL     1       5.352   7.424 -11.893  1.00  0.00    +0.183 C 
ATOM      3  C   UNL     1       5.737   5.941 -12.074  1.00  0.00    +0.175 C 
ATOM      4  C   UNL     1       4.601   5.034 -11.555  1.00  0.00    +0.140 C 
ATOM      5  C   UNL     1       4.282   5.420 -10.083  1.00  0.00    +0.273 C 
ATOM      6  O   UNL     1       3.905   6.788  -9.998  1.00  0.00    -0.342 OA
ENDROOT
BRANCH   1   7
ATOM      7  C   UNL     1       6.103   7.795  -9.454  1.00  0.00    +0.198 C 
BRANCH   7   8
ATOM      8  O   UNL     1       6.155   9.075  -8.816  1.00  0.00    -0.348 OA
BRANCH   8   9
ATOM      9  C   UNL     1       6.626   9.000  -7.462  1.00  0.00    +0.270 C 
ATOM     10  C   UNL     1       8.557   9.395  -6.063  1.00  0.00    +0.178 C 
ATOM     11  C   UNL     1       7.541   9.077  -4.953  1.00  0.00    +0.176 C 
ATOM     12  O   UNL     1       8.001   9.364  -7.385  1.00  0.00    -0.342 OA
ATOM     13  C   UNL     1       6.241   9.878  -5.109  1.00  0.00    +0.167 C 
ATOM     14  C   UNL     1       5.751   9.936  -6.573  1.00  0.00    +0.139 C 
BRANCH  10  15
ATOM     15  C   UNL     1       9.299  10.730  -5.888  1.00  0.00    +0.191 C 
BRANCH  15  16
ATOM     16  O   UNL     1       8.769  11.744  -6.738  1.00  0.00    -0.394 OA
ATOM     17  H   UNL     1       9.179  11.627  -7.613  1.00  0.00    +0.210 HD
ENDBRANCH  15  16
ENDBRANCH  10  15
BRANCH  11  18
ATOM     18  O   UNL     1       8.072   9.256  -3.634  1.00  0.00    -0.388 OA
ATOM     19  H   UNL     1       7.549   8.696  -3.031  1.00  0.00    +0.211 HD
ENDBRANCH  11  18
BRANCH  13  20
ATOM     20  O   UNL     1       5.238   9.253  -4.282  1.00  0.00    -0.388 OA
ATOM     21  H   UNL     1       4.470   9.855  -4.320  1.00  0.00    +0.211 HD
ENDBRANCH  13  20
BRANCH  14  22
ATOM     22  N   UNL     1       5.787  11.344  -7.073  1.00  0.00    -0.321 NA
ATOM     23  H   UNL     1       6.765  11.654  -6.953  1.00  0.00    +0.119 HD
ATOM     24  H   UNL     1       5.691  11.290  -8.102  1.00  0.00    +0.119 HD
ENDBRANCH  14  22
ENDBRANCH   8   9
ENDBRANCH   7   8
ENDBRANCH   1   7
BRANCH   2  25
ATOM     25  O   UNL     1       6.485   8.242 -12.235  1.00  0.00    -0.342 OA
BRANCH  25  26
ATOM     26  C   UNL     1       6.187   9.174 -13.283  1.00  0.00    +0.270 C 
ATOM     27  C   UNL     1       6.576  10.602 -12.786  1.00  0.00    +0.139 C 
ATOM     28  O   UNL     1       4.803   9.118 -13.621  1.00  0.00    -0.342 OA
ATOM     29  C   UNL     1       6.221  11.664 -13.864  1.00  0.00    +0.167 C 
ATOM     30  C   UNL     1       4.373  10.082 -14.592  1.00  0.00    +0.178 C 
ATOM     31  C   UNL     1       5.484  11.046 -15.058  1.00  0.00    +0.176 C 
BRANCH  27  32
ATOM     32  N   UNL     1       5.997  10.894 -11.448  1.00  0.00    -0.321 NA
ATOM     33  H   UNL     1       6.766  11.206 -10.846  1.00  0.00    +0.119 HD
ATOM     34  H   UNL     1       5.415  11.727 -11.556  1.00  0.00    +0.119 HD
ENDBRANCH  27  32
BRANCH  29  35
ATOM     35  O   UNL     1       5.414  12.747 -13.357  1.00  0.00    -0.388 OA
ATOM     36  H   UNL     1       4.820  12.325 -12.701  1.00  0.00    +0.211 HD
ENDBRANCH  29  35
BRANCH  30  37
ATOM     37  C   UNL     1       3.091  10.763 -14.068  1.00  0.00    +0.191 C 
BRANCH  37  38
ATOM     38  O   UNL     1       3.024  10.859 -12.646  1.00  0.00    -0.394 OA
ATOM     39  H   UNL     1       3.436  11.716 -12.393  1.00  0.00    +0.210 HD
ENDBRANCH  37  38
ENDBRANCH  30  37
BRANCH  31  40
ATOM     40  O   UNL     1       4.993  12.090 -15.906  1.00  0.00    -0.388 OA
ATOM     41  H   UNL     1       5.074  12.932 -15.419  1.00  0.00    +0.211 HD
ENDBRANCH  31  40
ENDBRANCH  25  26
ENDBRANCH   2  25
BRANCH   3  42
ATOM     42  O   UNL     1       6.048   5.732 -13.469  1.00  0.00    -0.343 OA
BRANCH  42  43
ATOM     43  C   UNL     1       7.364   5.222 -13.712  1.00  0.00    +0.270 C 
ATOM     44  C   UNL     1       7.203   3.765 -14.222  1.00  0.00    +0.139 C 
ATOM     45  O   UNL     1       8.104   5.289 -12.490  1.00  0.00    -0.342 OA
ATOM     46  C   UNL     1       8.559   3.045 -14.264  1.00  0.00    +0.167 C 
ATOM     47  C   UNL     1       9.396   4.673 -12.529  1.00  0.00    +0.178 C 
ATOM     48  C   UNL     1       9.280   3.189 -12.923  1.00  0.00    +0.176 C 
BRANCH  44  49
ATOM     49  N   UNL     1       6.565   3.719 -15.561  1.00  0.00    -0.321 NA
ATOM     50  H   UNL     1       7.208   3.255 -16.203  1.00  0.00    +0.119 HD
ATOM     51  H   UNL     1       6.474   4.687 -15.883  1.00  0.00    +0.119 HD
ENDBRANCH  44  49
BRANCH  46  52
ATOM     52  O   UNL     1       8.357   1.647 -14.543  1.00  0.00    -0.388 OA
ATOM     53  H   UNL     1       9.018   1.181 -13.991  1.00  0.00    +0.211 HD
ENDBRANCH  46  52
BRANCH  47  54
ATOM     54  C   UNL     1      10.391   5.491 -13.372  1.00  0.00    +0.191 C 
BRANCH  54  55
ATOM     55  O   UNL     1      11.728   5.070 -13.119  1.00  0.00    -0.394 OA
ATOM     56  H   UNL     1      12.300   5.855 -13.226  1.00  0.00    +0.210 HD
ENDBRANCH  54  55
ENDBRANCH  47  54
BRANCH  48  57
ATOM     57  O   UNL     1      10.534   2.500 -12.994  1.00  0.00    -0.388 OA
ATOM     58  H   UNL     1      11.241   3.176 -13.095  1.00  0.00    +0.211 HD
ENDBRANCH  48  57
ENDBRANCH  42  43
ENDBRANCH   3  42
BRANCH   5  59
ATOM     59  O   UNL     1       3.216   4.581  -9.633  1.00  0.00    -0.320 OA
BRANCH  59  60
ATOM     60  C   UNL     1       3.016   4.600  -8.218  1.00  0.00    +0.273 C 
ATOM     61  C   UNL     1       2.699   3.180  -7.665  1.00  0.00    +0.140 C 
ATOM     62  O   UNL     1       4.250   5.090  -7.672  1.00  0.00    -0.342 OA
ATOM     63  C   UNL     1       2.711   3.218  -6.122  1.00  0.00    +0.174 C 
ATOM     64  C   UNL     1       4.225   5.203  -6.239  1.00  0.00    +0.178 C 
ATOM     65  C   UNL     1       4.014   3.832  -5.597  1.00  0.00    +0.176 C 
BRANCH  61  66
ATOM     66  N   UNL     1       1.400   2.646  -8.123  1.00  0.00    -0.321 NA
ATOM     67  H   UNL     1       1.576   1.898  -8.807  1.00  0.00    +0.119 HD
ATOM     68  H   UNL     1       0.911   3.385  -8.649  1.00  0.00    +0.119 HD
ENDBRANCH  61  66
BRANCH  63  69
ATOM     69  O   UNL     1       2.631   1.881  -5.586  1.00  0.00    -0.343 OA
BRANCH  69  70
ATOM     70  C   UNL     1       3.470   0.959  -6.287  1.00  0.00    +0.270 C 
ATOM     71  C   UNL     1       4.478   0.320  -5.286  1.00  0.00    +0.139 C 
ATOM     72  O   UNL     1       2.631   0.003  -6.954  1.00  0.00    -0.342 OA
ATOM     73  C   UNL     1       4.831  -1.077  -5.806  1.00  0.00    +0.167 C 
ATOM     74  C   UNL     1       2.302  -1.127  -6.131  1.00  0.00    +0.178 C 
ATOM     75  C   UNL     1       3.574  -1.963  -5.840  1.00  0.00    +0.176 C 
BRANCH  71  76
ATOM     76  N   UNL     1       5.692   1.147  -5.060  1.00  0.00    -0.321 NA
ATOM     77  H   UNL     1       5.976   0.968  -4.090  1.00  0.00    +0.119 HD
ATOM     78  H   UNL     1       6.462   0.741  -5.615  1.00  0.00    +0.119 HD
ENDBRANCH  71  76
BRANCH  73  79
ATOM     79  O   UNL     1       5.826  -1.695  -4.973  1.00  0.00    -0.388 OA
ATOM     80  H   UNL     1       6.285  -2.329  -5.558  1.00  0.00    +0.211 HD
ENDBRANCH  73  79
BRANCH  74  81
ATOM     81  C   UNL     1       1.176  -1.911  -6.818  1.00  0.00    +0.191 C 
BRANCH  81  82
ATOM     82  O   UNL     1       1.546  -2.279  -8.150  1.00  0.00    -0.394 OA
ATOM     83  H   UNL     1       1.284  -3.210  -8.267  1.00  0.00    +0.210 HD
ENDBRANCH  81  82
ENDBRANCH  74  81
BRANCH  75  84
ATOM     84  O   UNL     1       3.839  -3.019  -6.774  1.00  0.00    -0.388 OA
ATOM     85  H   UNL     1       4.609  -2.737  -7.317  1.00  0.00    +0.211 HD
ENDBRANCH  75  84
ENDBRANCH  69  70
ENDBRANCH  63  69
BRANCH  64  86
ATOM     86  C   UNL     1       5.557   5.824  -5.811  1.00  0.00    +0.191 C 
BRANCH  86  87
ATOM     87  O   UNL     1       5.403   6.437  -4.526  1.00  0.00    -0.394 OA
ATOM     88  H   UNL     1       6.194   6.158  -4.023  1.00  0.00    +0.210 HD
ENDBRANCH  86  87
ENDBRANCH  64  86
BRANCH  65  89
ATOM     89  O   UNL     1       3.942   3.949  -4.171  1.00  0.00    -0.388 OA
ATOM     90  H   UNL     1       4.340   4.817  -3.957  1.00  0.00    +0.211 HD
ENDBRANCH  65  89
ENDBRANCH  59  60
ENDBRANCH   5  59
BRANCH   4  91
ATOM     91  N   UNL     1       3.411   5.116 -12.438  1.00  0.00    -0.321 NA
ATOM     92  H   UNL     1       3.609   4.568 -13.279  1.00  0.00    +0.119 HD
ATOM     93  H   UNL     1       3.304   6.092 -12.727  1.00  0.00    +0.119 HD
ENDBRANCH   4  91
TORSDOF 36
ENDMDL
MODEL 6
REMARK VINA RESULT:    -6.803     12.417     18.172
REMARK INTER + INTRA:         -23.516
REMARK INTER:                 -15.497
REMARK INTRA:                  -8.019
REMARK UNBOUND:                -6.373
REMARK SMILES N[C@@H]1[C@@H](O[C@@H]2[C@H](N)[C@H](O[C@@H]3O[C@H](CO)[C@@H](O)[C@H](O[C@@H]4O[C@@H](CO)[C@@H](O)[C@H](O)[C@H]4N)[C@H]3N)O[C@@H](CO[C@H]3O[C@@H](CO)[C@@H](O)[C@H](O)[C@H]3N)[C@H]2O[C@H]2O[C@@H](CO)[C@@H](O)[C@@H](O)[C@H]2N)O[C@H](CO)[C@H](O)[C@H]1O
REMARK SMILES IDX 33 1 47 2 5 3 6 4 8 5 32 6 34 7 35 8 36 9 38 10 41 11 37 12
REMARK SMILES IDX 43 13 45 14 39 15 40 16 42 18 44 20 46 22 48 25 49 26 58 27
REMARK SMILES IDX 50 28 56 29 51 30 54 31 59 32 57 35 52 37 53 38 55 40 4 42
REMARK SMILES IDX 3 43 2 44 60 45 66 46 61 47 64 48 1 49 67 52 62 54 63 55
REMARK SMILES IDX 65 57 9 59 10 60 30 61 11 62 17 63 12 64 15 65 31 66 18 69
REMARK SMILES IDX 19 70 28 71 20 72 26 73 21 74 24 75 29 76 27 79 22 81 23 82
REMARK SMILES IDX 25 84 13 86 14 87 16 89 7 91
REMARK H PARENT 40 17 42 19 44 21 46 23 46 24 59 33 59 34 57 36 53 39 55 41
REMARK H PARENT 1 50 1 51 67 53 63 56 65 58 31 67 31 68 29 77 29 78 27 80
REMARK H PARENT 23 83 25 85 14 88 16 90 7 92 7 93
ROOT
ATOM      1  C   UNL     1       5.027   7.725 -10.212  1.00  0.00    +0.179 C 
ATOM      2  C   UNL     1       6.179   8.088  -9.252  1.00  0.00    +0.183 C 
ATOM      3  C   UNL     1       7.553   7.808  -9.895  1.00  0.00    +0.175 C 
ATOM      4  C   UNL     1       7.634   8.489 -11.279  1.00  0.00    +0.140 C 
ATOM      5  C   UNL     1       6.432   8.015 -12.144  1.00  0.00    +0.273 C 
ATOM      6  O   UNL     1       5.203   8.334 -11.504  1.00  0.00    -0.342 OA
ENDROOT
BRANCH   1   7
ATOM      7  C   UNL     1       4.783   6.200 -10.317  1.00  0.00    +0.198 C 
BRANCH   7   8
ATOM      8  O   UNL     1       3.390   5.912 -10.476  1.00  0.00    -0.348 OA
BRANCH   8   9
ATOM      9  C   UNL     1       2.959   4.801  -9.675  1.00  0.00    +0.270 C 
ATOM     10  C   UNL     1       3.741   3.115  -8.131  1.00  0.00    +0.178 C 
ATOM     11  C   UNL     1       2.233   2.843  -8.008  1.00  0.00    +0.176 C 
ATOM     12  O   UNL     1       4.068   4.193  -9.019  1.00  0.00    -0.342 OA
ATOM     13  C   UNL     1       1.430   4.128  -7.760  1.00  0.00    +0.167 C 
ATOM     14  C   UNL     1       1.907   5.305  -8.641  1.00  0.00    +0.139 C 
BRANCH  10  15
ATOM     15  C   UNL     1       4.457   3.364  -6.793  1.00  0.00    +0.191 C 
BRANCH  15  16
ATOM     16  O   UNL     1       4.839   4.730  -6.645  1.00  0.00    -0.394 OA
ATOM     17  H   UNL     1       4.319   5.093  -5.905  1.00  0.00    +0.210 HD
ENDBRANCH  15  16
ENDBRANCH  10  15
BRANCH  11  18
ATOM     18  O   UNL     1       1.914   1.866  -7.009  1.00  0.00    -0.388 OA
ATOM     19  H   UNL     1       1.854   2.333  -6.156  1.00  0.00    +0.211 HD
ENDBRANCH  11  18
BRANCH  13  20
ATOM     20  O   UNL     1       0.044   3.840  -8.038  1.00  0.00    -0.388 OA
ATOM     21  H   UNL     1      -0.444   4.621  -7.714  1.00  0.00    +0.211 HD
ENDBRANCH  13  20
BRANCH  14  22
ATOM     22  N   UNL     1       2.469   6.393  -7.785  1.00  0.00    -0.321 NA
ATOM     23  H   UNL     1       1.735   6.603  -7.089  1.00  0.00    +0.119 HD
ATOM     24  H   UNL     1       3.210   5.956  -7.208  1.00  0.00    +0.119 HD
ENDBRANCH  14  22
ENDBRANCH   8   9
ENDBRANCH   7   8
ENDBRANCH   1   7
BRANCH   2  25
ATOM     25  O   UNL     1       6.070   7.317  -8.042  1.00  0.00    -0.342 OA
BRANCH  25  26
ATOM     26  C   UNL     1       5.638   8.109  -6.928  1.00  0.00    +0.270 C 
ATOM     27  C   UNL     1       6.858   8.310  -5.975  1.00  0.00    +0.139 C 
ATOM     28  O   UNL     1       4.565   7.466  -6.244  1.00  0.00    -0.342 OA
ATOM     29  C   UNL     1       6.433   9.118  -4.717  1.00  0.00    +0.167 C 
ATOM     30  C   UNL     1       4.120   8.124  -5.050  1.00  0.00    +0.178 C 
ATOM     31  C   UNL     1       4.925   9.391  -4.693  1.00  0.00    +0.176 C 
BRANCH  27  32
ATOM     32  N   UNL     1       7.524   7.019  -5.658  1.00  0.00    -0.321 NA
ATOM     33  H   UNL     1       8.433   7.022  -6.132  1.00  0.00    +0.119 HD
ATOM     34  H   UNL     1       7.764   7.049  -4.664  1.00  0.00    +0.119 HD
ENDBRANCH  27  32
BRANCH  29  35
ATOM     35  O   UNL     1       6.786   8.473  -3.476  1.00  0.00    -0.388 OA
ATOM     36  H   UNL     1       7.494   9.036  -3.097  1.00  0.00    +0.211 HD
ENDBRANCH  29  35
BRANCH  30  37
ATOM     37  C   UNL     1       4.014   7.075  -3.924  1.00  0.00    +0.191 C 
BRANCH  37  38
ATOM     38  O   UNL     1       4.989   6.037  -4.006  1.00  0.00    -0.394 OA
ATOM     39  H   UNL     1       4.689   5.310  -3.413  1.00  0.00    +0.210 HD
ENDBRANCH  37  38
ENDBRANCH  30  37
BRANCH  31  40
ATOM     40  O   UNL     1       4.561   9.939  -3.421  1.00  0.00    -0.388 OA
ATOM     41  H   UNL     1       5.372  10.011  -2.885  1.00  0.00    +0.211 HD
ENDBRANCH  31  40
ENDBRANCH  25  26
ENDBRANCH   2  25
BRANCH   3  42
ATOM     42  O   UNL     1       8.573   8.254  -8.975  1.00  0.00    -0.343 OA
BRANCH  42  43
ATOM     43  C   UNL     1       9.615   7.301  -8.740  1.00  0.00    +0.270 C 
ATOM     44  C   UNL     1      10.682   7.999  -7.856  1.00  0.00    +0.139 C 
ATOM     45  O   UNL     1      10.144   6.893 -10.005  1.00  0.00    -0.342 OA
ATOM     46  C   UNL     1      11.959   7.151  -7.763  1.00  0.00    +0.167 C 
ATOM     47  C   UNL     1      11.301   6.053  -9.937  1.00  0.00    +0.178 C 
ATOM     48  C   UNL     1      12.434   6.749  -9.161  1.00  0.00    +0.176 C 
BRANCH  44  49
ATOM     49  N   UNL     1      10.167   8.285  -6.494  1.00  0.00    -0.321 NA
ATOM     50  H   UNL     1      10.772   8.985  -6.066  1.00  0.00    +0.119 HD
ATOM     51  H   UNL     1      10.275   7.425  -5.947  1.00  0.00    +0.119 HD
ENDBRANCH  44  49
BRANCH  46  52
ATOM     52  O   UNL     1      12.997   7.907  -7.112  1.00  0.00    -0.388 OA
ATOM     53  H   UNL     1      13.762   7.863  -7.721  1.00  0.00    +0.211 HD
ENDBRANCH  46  52
BRANCH  47  54
ATOM     54  C   UNL     1      10.949   4.639  -9.438  1.00  0.00    +0.191 C 
BRANCH  54  55
ATOM     55  O   UNL     1      11.927   3.698  -9.870  1.00  0.00    -0.394 OA
ATOM     56  H   UNL     1      12.730   4.205 -10.101  1.00  0.00    +0.210 HD
ENDBRANCH  54  55
ENDBRANCH  47  54
BRANCH  48  57
ATOM     57  O   UNL     1      13.629   5.969  -9.038  1.00  0.00    -0.388 OA
ATOM     58  H   UNL     1      14.337   6.560  -8.693  1.00  0.00    +0.211 HD
ENDBRANCH  48  57
ENDBRANCH  42  43
ENDBRANCH   3  42
BRANCH   5  59
ATOM     59  O   UNL     1       6.519   8.674 -13.410  1.00  0.00    -0.320 OA
BRANCH  59  60
ATOM     60  C   UNL     1       6.388   7.799 -14.532  1.00  0.00    +0.273 C 
ATOM     61  C   UNL     1       7.621   6.859 -14.674  1.00  0.00    +0.140 C 
ATOM     62  O   UNL     1       5.199   7.036 -14.278  1.00  0.00    -0.342 OA
ATOM     63  C   UNL     1       7.334   5.796 -15.755  1.00  0.00    +0.174 C 
ATOM     64  C   UNL     1       4.891   6.108 -15.330  1.00  0.00    +0.178 C 
ATOM     65  C   UNL     1       6.009   5.076 -15.481  1.00  0.00    +0.176 C 
BRANCH  61  66
ATOM     66  N   UNL     1       8.869   7.570 -15.018  1.00  0.00    -0.321 NA
ATOM     67  H   UNL     1       9.389   7.760 -14.150  1.00  0.00    +0.119 HD
ATOM     68  H   UNL     1       8.622   8.498 -15.393  1.00  0.00    +0.119 HD
ENDBRANCH  61  66
BRANCH  63  69
ATOM     69  O   UNL     1       8.366   4.790 -15.758  1.00  0.00    -0.343 OA
BRANCH  69  70
ATOM     70  C   UNL     1       8.466   4.104 -14.507  1.00  0.00    +0.270 C 
ATOM     71  C   UNL     1       8.635   2.578 -14.771  1.00  0.00    +0.139 C 
ATOM     72  O   UNL     1       9.544   4.686 -13.758  1.00  0.00    -0.342 OA
ATOM     73  C   UNL     1       9.427   1.987 -13.600  1.00  0.00    +0.167 C 
ATOM     74  C   UNL     1      10.815   4.080 -14.040  1.00  0.00    +0.178 C 
ATOM     75  C   UNL     1      10.830   2.614 -13.539  1.00  0.00    +0.176 C 
BRANCH  71  76
ATOM     76  N   UNL     1       7.347   1.867 -14.980  1.00  0.00    -0.321 NA
ATOM     77  H   UNL     1       7.237   1.780 -15.997  1.00  0.00    +0.119 HD
ATOM     78  H   UNL     1       7.468   0.891 -14.667  1.00  0.00    +0.119 HD
ENDBRANCH  71  76
BRANCH  73  79
ATOM     79  O   UNL     1       9.549   0.561 -13.735  1.00  0.00    -0.388 OA
ATOM     80  H   UNL     1       9.174   0.197 -12.910  1.00  0.00    +0.211 HD
ENDBRANCH  73  79
BRANCH  74  81
ATOM     81  C   UNL     1      11.914   4.964 -13.435  1.00  0.00    +0.191 C 
BRANCH  81  82
ATOM     82  O   UNL     1      11.558   6.348 -13.508  1.00  0.00    -0.394 OA
ATOM     83  H   UNL     1      11.273   6.612 -12.615  1.00  0.00    +0.210 HD
ENDBRANCH  81  82
ENDBRANCH  74  81
BRANCH  75  84
ATOM     84  O   UNL     1      11.306   2.430 -12.198  1.00  0.00    -0.388 OA
ATOM     85  H   UNL     1      10.516   2.286 -11.630  1.00  0.00    +0.211 HD
ENDBRANCH  75  84
ENDBRANCH  69  70
ENDBRANCH  63  69
BRANCH  64  86
ATOM     86  C   UNL     1       3.559   5.444 -14.971  1.00  0.00    +0.191 C 
BRANCH  86  87
ATOM     87  O   UNL     1       3.407   5.425 -13.548  1.00  0.00    -0.394 OA
ATOM     88  H   UNL     1       4.292   5.189 -13.207  1.00  0.00    +0.210 HD
ENDBRANCH  86  87
ENDBRANCH  64  86
BRANCH  65  89
ATOM     89  O   UNL     1       5.724   4.178 -16.560  1.00  0.00    -0.388 OA
ATOM     90  H   UNL     1       5.490   4.746 -17.322  1.00  0.00    +0.211 HD
ENDBRANCH  65  89
ENDBRANCH  59  60
ENDBRANCH   5  59
BRANCH   4  91
ATOM     91  N   UNL     1       7.694   9.966 -11.142  1.00  0.00    -0.321 NA
ATOM     92  H   UNL     1       8.569  10.283 -11.566  1.00  0.00    +0.119 HD
ATOM     93  H   UNL     1       7.740  10.184 -10.143  1.00  0.00    +0.119 HD
ENDBRANCH   4  91
TORSDOF 36
ENDMDL
MODEL 7
REMARK VINA RESULT:    -6.724      9.367     19.867
REMARK INTER + INTRA:         -23.318
REMARK INTER:                 -16.108
REMARK INTRA:                  -7.210
REMARK UNBOUND:                -6.373
REMARK SMILES N[C@@H]1[C@@H](O[C@@H]2[C@H](N)[C@H](O[C@@H]3O[C@H](CO)[C@@H](O)[C@H](O[C@@H]4O[C@@H](CO)[C@@H](O)[C@H](O)[C@H]4N)[C@H]3N)O[C@@H](CO[C@H]3O[C@@H](CO)[C@@H](O)[C@H](O)[C@H]3N)[C@H]2O[C@H]2O[C@@H](CO)[C@@H](O)[C@@H](O)[C@H]2N)O[C@H](CO)[C@H](O)[C@H]1O
REMARK SMILES IDX 33 1 47 2 5 3 6 4 8 5 32 6 34 7 35 8 36 9 38 10 41 11 37 12
REMARK SMILES IDX 43 13 45 14 39 15 40 16 42 18 44 20 46 22 48 25 49 26 58 27
REMARK SMILES IDX 50 28 56 29 51 30 54 31 59 32 57 35 52 37 53 38 55 40 4 42
REMARK SMILES IDX 3 43 2 44 60 45 66 46 61 47 64 48 1 49 67 52 62 54 63 55
REMARK SMILES IDX 65 57 9 59 10 60 30 61 11 62 17 63 12 64 15 65 31 66 18 69
REMARK SMILES IDX 19 70 28 71 20 72 26 73 21 74 24 75 29 76 27 79 22 81 23 82
REMARK SMILES IDX 25 84 13 86 14 87 16 89 7 91
REMARK H PARENT 40 17 42 19 44 21 46 23 46 24 59 33 59 34 57 36 53 39 55 41
REMARK H PARENT 1 50 1 51 67 53 63 56 65 58 31 67 31 68 29 77 29 78 27 80
REMARK H PARENT 23 83 25 85 14 88 16 90 7 92 7 93
ROOT
ATOM      1  C   UNL     1       5.301   9.783  -7.920  1.00  0.00    +0.179 C 
ATOM      2  C   UNL     1       5.461   9.937  -9.447  1.00  0.00    +0.183 C 
ATOM      3  C   UNL     1       5.150   8.616 -10.179  1.00  0.00    +0.175 C 
ATOM      4  C   UNL     1       3.774   8.077  -9.732  1.00  0.00    +0.140 C 
ATOM      5  C   UNL     1       3.763   7.949  -8.182  1.00  0.00    +0.273 C 
ATOM      6  O   UNL     1       4.025   9.210  -7.578  1.00  0.00    -0.342 OA
ENDROOT
BRANCH   1   7
ATOM      7  C   UNL     1       6.476   9.020  -7.262  1.00  0.00    +0.198 C 
BRANCH   7   8
ATOM      8  O   UNL     1       7.362   9.922  -6.590  1.00  0.00    -0.348 OA
BRANCH   8   9
ATOM      9  C   UNL     1       8.697   9.407  -6.480  1.00  0.00    +0.270 C 
ATOM     10  C   UNL     1      10.194   7.718  -7.345  1.00  0.00    +0.178 C 
ATOM     11  C   UNL     1      11.209   8.494  -6.488  1.00  0.00    +0.176 C 
ATOM     12  O   UNL     1       8.870   8.270  -7.321  1.00  0.00    -0.342 OA
ATOM     13  C   UNL     1      11.152  10.006  -6.749  1.00  0.00    +0.167 C 
ATOM     14  C   UNL     1       9.704  10.537  -6.854  1.00  0.00    +0.139 C 
BRANCH  10  15
ATOM     15  C   UNL     1      10.608   7.532  -8.814  1.00  0.00    +0.191 C 
BRANCH  15  16
ATOM     16  O   UNL     1       9.818   8.332  -9.691  1.00  0.00    -0.394 OA
ATOM     17  H   UNL     1       9.017   8.587  -9.199  1.00  0.00    +0.210 HD
ENDBRANCH  15  16
ENDBRANCH  10  15
BRANCH  11  18
ATOM     18  O   UNL     1      12.553   8.021  -6.638  1.00  0.00    -0.388 OA
ATOM     19  H   UNL     1      12.586   7.118  -6.272  1.00  0.00    +0.211 HD
ENDBRANCH  11  18
BRANCH  13  20
ATOM     20  O   UNL     1      11.836  10.665  -5.663  1.00  0.00    -0.388 OA
ATOM     21  H   UNL     1      11.870  11.605  -5.922  1.00  0.00    +0.211 HD
ENDBRANCH  13  20
BRANCH  14  22
ATOM     22  N   UNL     1       9.446  11.057  -8.231  1.00  0.00    -0.321 NA
ATOM     23  H   UNL     1       8.704  11.767  -8.123  1.00  0.00    +0.119 HD
ATOM     24  H   UNL     1      10.271  11.628  -8.486  1.00  0.00    +0.119 HD
ENDBRANCH  14  22
ENDBRANCH   8   9
ENDBRANCH   7   8
ENDBRANCH   1   7
BRANCH   2  25
ATOM     25  O   UNL     1       6.809  10.333  -9.761  1.00  0.00    -0.342 OA
BRANCH  25  26
ATOM     26  C   UNL     1       6.857  11.557 -10.505  1.00  0.00    +0.270 C 
ATOM     27  C   UNL     1       7.753  11.325 -11.762  1.00  0.00    +0.139 C 
ATOM     28  O   UNL     1       7.384  12.609  -9.700  1.00  0.00    -0.342 OA
ATOM     29  C   UNL     1       7.888  12.639 -12.580  1.00  0.00    +0.167 C 
ATOM     30  C   UNL     1       7.572  13.860 -10.376  1.00  0.00    +0.178 C 
ATOM     31  C   UNL     1       7.215  13.824 -11.877  1.00  0.00    +0.176 C 
BRANCH  27  32
ATOM     32  N   UNL     1       9.058  10.711 -11.400  1.00  0.00    -0.321 NA
ATOM     33  H   UNL     1       9.762  11.095 -12.038  1.00  0.00    +0.119 HD
ATOM     34  H   UNL     1       9.318  11.092 -10.487  1.00  0.00    +0.119 HD
ENDBRANCH  27  32
BRANCH  29  35
ATOM     35  O   UNL     1       9.256  13.005 -12.854  1.00  0.00    -0.388 OA
ATOM     36  H   UNL     1       9.669  12.182 -13.191  1.00  0.00    +0.211 HD
ENDBRANCH  29  35
BRANCH  30  37
ATOM     37  C   UNL     1       8.986  14.385 -10.050  1.00  0.00    +0.191 C 
BRANCH  37  38
ATOM     38  O   UNL     1       9.977  13.363  -9.965  1.00  0.00    -0.394 OA
ATOM     39  H   UNL     1      10.453  13.348 -10.827  1.00  0.00    +0.210 HD
ENDBRANCH  37  38
ENDBRANCH  30  37
BRANCH  31  40
ATOM     40  O   UNL     1       7.556  15.037 -12.557  1.00  0.00    -0.388 OA
ATOM     41  H   UNL     1       6.957  15.128 -13.322  1.00  0.00    +0.211 HD
ENDBRANCH  31  40
ENDBRANCH  25  26
ENDBRANCH   2  25
BRANCH   3  42
ATOM     42  O   UNL     1       5.235   8.865 -11.599  1.00  0.00    -0.343 OA
BRANCH  42  43
ATOM     43  C   UNL     1       5.901   7.837 -12.341  1.00  0.00    +0.270 C 
ATOM     44  C   UNL     1       4.821   7.107 -13.183  1.00  0.00    +0.139 C 
ATOM     45  O   UNL     1       6.548   6.960 -11.414  1.00  0.00    -0.342 OA
ATOM     46  C   UNL     1       5.388   5.826 -13.813  1.00  0.00    +0.167 C 
ATOM     47  C   UNL     1       7.133   5.790 -11.993  1.00  0.00    +0.178 C 
ATOM     48  C   UNL     1       6.074   4.968 -12.749  1.00  0.00    +0.176 C 
BRANCH  44  49
ATOM     49  N   UNL     1       4.262   7.985 -14.240  1.00  0.00    -0.321 NA
ATOM     50  H   UNL     1       4.067   8.897 -13.826  1.00  0.00    +0.119 HD
ATOM     51  H   UNL     1       3.359   7.586 -14.514  1.00  0.00    +0.119 HD
ENDBRANCH  44  49
BRANCH  46  52
ATOM     52  O   UNL     1       4.322   5.068 -14.415  1.00  0.00    -0.388 OA
ATOM     53  H   UNL     1       3.525   5.628 -14.314  1.00  0.00    +0.211 HD
ENDBRANCH  46  52
BRANCH  47  54
ATOM     54  C   UNL     1       8.395   6.128 -12.809  1.00  0.00    +0.191 C 
BRANCH  54  55
ATOM     55  O   UNL     1       9.320   6.869 -12.020  1.00  0.00    -0.394 OA
ATOM     56  H   UNL     1       9.918   6.221 -11.598  1.00  0.00    +0.210 HD
ENDBRANCH  54  55
ENDBRANCH  47  54
BRANCH  48  57
ATOM     57  O   UNL     1       6.582   3.780 -13.368  1.00  0.00    -0.388 OA
ATOM     58  H   UNL     1       6.034   3.601 -14.165  1.00  0.00    +0.211 HD
ENDBRANCH  48  57
ENDBRANCH  42  43
ENDBRANCH   3  42
BRANCH   5  59
ATOM     59  O   UNL     1       2.475   7.469  -7.792  1.00  0.00    -0.320 OA
BRANCH  59  60
ATOM     60  C   UNL     1       2.508   6.474  -6.768  1.00  0.00    +0.273 C 
ATOM     61  C   UNL     1       2.664   5.043  -7.363  1.00  0.00    +0.140 C 
ATOM     62  O   UNL     1       3.644   6.808  -5.956  1.00  0.00    -0.342 OA
ATOM     63  C   UNL     1       2.916   4.038  -6.220  1.00  0.00    +0.174 C 
ATOM     64  C   UNL     1       3.822   5.917  -4.843  1.00  0.00    +0.178 C 
ATOM     65  C   UNL     1       4.081   4.492  -5.334  1.00  0.00    +0.176 C 
BRANCH  61  66
ATOM     66  N   UNL     1       1.493   4.600  -8.145  1.00  0.00    -0.321 NA
ATOM     67  H   UNL     1       0.703   5.227  -7.939  1.00  0.00    +0.119 HD
ATOM     68  H   UNL     1       1.200   3.674  -7.797  1.00  0.00    +0.119 HD
ENDBRANCH  61  66
BRANCH  63  69
ATOM     69  O   UNL     1       3.273   2.747  -6.755  1.00  0.00    -0.343 OA
BRANCH  69  70
ATOM     70  C   UNL     1       2.430   1.700  -6.266  1.00  0.00    +0.270 C 
ATOM     71  C   UNL     1       1.895   0.869  -7.470  1.00  0.00    +0.139 C 
ATOM     72  O   UNL     1       3.177   0.927  -5.314  1.00  0.00    -0.342 OA
ATOM     73  C   UNL     1       1.643  -0.559  -6.976  1.00  0.00    +0.167 C 
ATOM     74  C   UNL     1       3.926  -0.139  -5.920  1.00  0.00    +0.178 C 
ATOM     75  C   UNL     1       2.962  -1.199  -6.510  1.00  0.00    +0.176 C 
BRANCH  71  76
ATOM     76  N   UNL     1       0.684   1.455  -8.102  1.00  0.00    -0.321 NA
ATOM     77  H   UNL     1       1.009   1.901  -8.968  1.00  0.00    +0.119 HD
ATOM     78  H   UNL     1       0.093   0.679  -8.438  1.00  0.00    +0.119 HD
ENDBRANCH  71  76
BRANCH  73  79
ATOM     79  O   UNL     1       1.066  -1.365  -8.017  1.00  0.00    -0.388 OA
ATOM     80  H   UNL     1       1.154  -2.285  -7.701  1.00  0.00    +0.211 HD
ENDBRANCH  73  79
BRANCH  74  81
ATOM     81  C   UNL     1       4.908  -0.690  -4.878  1.00  0.00    +0.191 C 
BRANCH  81  82
ATOM     82  O   UNL     1       5.266  -2.043  -5.176  1.00  0.00    -0.394 OA
ATOM     83  H   UNL     1       5.869  -2.011  -5.941  1.00  0.00    +0.210 HD
ENDBRANCH  81  82
ENDBRANCH  74  81
BRANCH  75  84
ATOM     84  O   UNL     1       2.611  -2.268  -5.621  1.00  0.00    -0.388 OA
ATOM     85  H   UNL     1       3.356  -2.373  -4.988  1.00  0.00    +0.211 HD
ENDBRANCH  75  84
ENDBRANCH  69  70
ENDBRANCH  63  69
BRANCH  64  86
ATOM     86  C   UNL     1       4.999   6.450  -4.021  1.00  0.00    +0.191 C 
BRANCH  86  87
ATOM     87  O   UNL     1       5.092   7.869  -4.191  1.00  0.00    -0.394 OA
ATOM     88  H   UNL     1       5.639   7.986  -4.992  1.00  0.00    +0.210 HD
ENDBRANCH  86  87
ENDBRANCH  64  86
BRANCH  65  89
ATOM     89  O   UNL     1       4.213   3.594  -4.225  1.00  0.00    -0.388 OA
ATOM     90  H   UNL     1       4.198   4.157  -3.425  1.00  0.00    +0.211 HD
ENDBRANCH  65  89
ENDBRANCH  59  60
ENDBRANCH   5  59
BRANCH   4  91
ATOM     91  N   UNL     1       2.676   8.936 -10.242  1.00  0.00    -0.321 NA
ATOM     92  H   UNL     1       2.026   9.102  -9.470  1.00  0.00    +0.119 HD
ATOM     93  H   UNL     1       2.172   8.405 -10.957  1.00  0.00    +0.119 HD
ENDBRANCH   4  91
TORSDOF 36
ENDMDL
MODEL 8
REMARK VINA RESULT:    -6.670      8.781     19.198
REMARK INTER + INTRA:         -23.181
REMARK INTER:                 -18.597
REMARK INTRA:                  -4.585
REMARK UNBOUND:                -6.373
REMARK SMILES N[C@@H]1[C@@H](O[C@@H]2[C@H](N)[C@H](O[C@@H]3O[C@H](CO)[C@@H](O)[C@H](O[C@@H]4O[C@@H](CO)[C@@H](O)[C@H](O)[C@H]4N)[C@H]3N)O[C@@H](CO[C@H]3O[C@@H](CO)[C@@H](O)[C@H](O)[C@H]3N)[C@H]2O[C@H]2O[C@@H](CO)[C@@H](O)[C@@H](O)[C@H]2N)O[C@H](CO)[C@H](O)[C@H]1O
REMARK SMILES IDX 33 1 47 2 5 3 6 4 8 5 32 6 34 7 35 8 36 9 38 10 41 11 37 12
REMARK SMILES IDX 43 13 45 14 39 15 40 16 42 18 44 20 46 22 48 25 49 26 58 27
REMARK SMILES IDX 50 28 56 29 51 30 54 31 59 32 57 35 52 37 53 38 55 40 4 42
REMARK SMILES IDX 3 43 2 44 60 45 66 46 61 47 64 48 1 49 67 52 62 54 63 55
REMARK SMILES IDX 65 57 9 59 10 60 30 61 11 62 17 63 12 64 15 65 31 66 18 69
REMARK SMILES IDX 19 70 28 71 20 72 26 73 21 74 24 75 29 76 27 79 22 81 23 82
REMARK SMILES IDX 25 84 13 86 14 87 16 89 7 91
REMARK H PARENT 40 17 42 19 44 21 46 23 46 24 59 33 59 34 57 36 53 39 55 41
REMARK H PARENT 1 50 1 51 67 53 63 56 65 58 31 67 31 68 29 77 29 78 27 80
REMARK H PARENT 23 83 25 85 14 88 16 90 7 92 7 93
ROOT
ATOM      1  C   UNL     1       6.531   8.288  -5.621  1.00  0.00    +0.179 C 
ATOM      2  C   UNL     1       6.396   9.464  -4.631  1.00  0.00    +0.183 C 
ATOM      3  C   UNL     1       5.018  10.144  -4.755  1.00  0.00    +0.175 C 
ATOM      4  C   UNL     1       3.897   9.087  -4.648  1.00  0.00    +0.140 C 
ATOM      5  C   UNL     1       4.145   7.982  -5.714  1.00  0.00    +0.273 C 
ATOM      6  O   UNL     1       5.419   7.380  -5.518  1.00  0.00    -0.342 OA
ENDROOT
BRANCH   1   7
ATOM      7  C   UNL     1       6.773   8.748  -7.079  1.00  0.00    +0.198 C 
BRANCH   7   8
ATOM      8  O   UNL     1       6.274   7.783  -8.011  1.00  0.00    -0.348 OA
BRANCH   8   9
ATOM      9  C   UNL     1       6.196   8.295  -9.350  1.00  0.00    +0.270 C 
ATOM     10  C   UNL     1       6.028   7.628 -11.667  1.00  0.00    +0.178 C 
ATOM     11  C   UNL     1       5.860   9.144 -11.862  1.00  0.00    +0.176 C 
ATOM     12  O   UNL     1       6.179   7.230 -10.297  1.00  0.00    -0.342 OA
ATOM     13  C   UNL     1       4.806   9.738 -10.914  1.00  0.00    +0.167 C 
ATOM     14  C   UNL     1       4.918   9.178  -9.478  1.00  0.00    +0.139 C 
BRANCH  10  15
ATOM     15  C   UNL     1       4.911   6.775 -12.291  1.00  0.00    +0.191 C 
BRANCH  15  16
ATOM     16  O   UNL     1       3.940   6.384 -11.323  1.00  0.00    -0.394 OA
ATOM     17  H   UNL     1       4.044   5.426 -11.186  1.00  0.00    +0.210 HD
ENDBRANCH  15  16
ENDBRANCH  10  15
BRANCH  11  18
ATOM     18  O   UNL     1       5.562   9.510 -13.215  1.00  0.00    -0.388 OA
ATOM     19  H   UNL     1       6.237  10.155 -13.496  1.00  0.00    +0.211 HD
ENDBRANCH  11  18
BRANCH  13  20
ATOM     20  O   UNL     1       4.989  11.168 -10.896  1.00  0.00    -0.388 OA
ATOM     21  H   UNL     1       4.578  11.484 -11.724  1.00  0.00    +0.211 HD
ENDBRANCH  13  20
BRANCH  14  22
ATOM     22  N   UNL     1       3.689   8.400  -9.133  1.00  0.00    -0.321 NA
ATOM     23  H   UNL     1       2.930   9.098  -9.066  1.00  0.00    +0.119 HD
ATOM     24  H   UNL     1       3.433   7.869  -9.984  1.00  0.00    +0.119 HD
ENDBRANCH  14  22
ENDBRANCH   8   9
ENDBRANCH   7   8
ENDBRANCH   1   7
BRANCH   2  25
ATOM     25  O   UNL     1       7.420  10.442  -4.891  1.00  0.00    -0.342 OA
BRANCH  25  26
ATOM     26  C   UNL     1       7.382  10.925  -6.239  1.00  0.00    +0.270 C 
ATOM     27  C   UNL     1       8.852  11.130  -6.722  1.00  0.00    +0.139 C 
ATOM     28  O   UNL     1       6.655  12.149  -6.310  1.00  0.00    -0.342 OA
ATOM     29  C   UNL     1       8.872  11.708  -8.165  1.00  0.00    +0.167 C 
ATOM     30  C   UNL     1       6.638  12.776  -7.600  1.00  0.00    +0.178 C 
ATOM     31  C   UNL     1       7.462  12.033  -8.672  1.00  0.00    +0.176 C 
BRANCH  27  32
ATOM     32  N   UNL     1       9.643  11.928  -5.748  1.00  0.00    -0.321 NA
ATOM     33  H   UNL     1       9.814  12.845  -6.174  1.00  0.00    +0.119 HD
ATOM     34  H   UNL     1       9.021  12.134  -4.963  1.00  0.00    +0.119 HD
ENDBRANCH  27  32
BRANCH  29  35
ATOM     35  O   UNL     1       9.674  12.901  -8.292  1.00  0.00    -0.388 OA
ATOM     36  H   UNL     1      10.231  12.911  -7.485  1.00  0.00    +0.211 HD
ENDBRANCH  29  35
BRANCH  30  37
ATOM     37  C   UNL     1       6.989  14.268  -7.422  1.00  0.00    +0.191 C 
BRANCH  37  38
ATOM     38  O   UNL     1       6.505  15.107  -8.470  1.00  0.00    -0.394 OA
ATOM     39  H   UNL     1       7.289  15.425  -8.973  1.00  0.00    +0.210 HD
ENDBRANCH  37  38
ENDBRANCH  30  37
BRANCH  31  40
ATOM     40  O   UNL     1       7.555  12.758  -9.902  1.00  0.00    -0.388 OA
ATOM     41  H   UNL     1       6.674  13.130 -10.096  1.00  0.00    +0.211 HD
ENDBRANCH  31  40
ENDBRANCH  25  26
ENDBRANCH   2  25
BRANCH   3  42
ATOM     42  O   UNL     1       4.937  11.170  -3.742  1.00  0.00    -0.343 OA
BRANCH  42  43
ATOM     43  C   UNL     1       3.911  12.144  -3.966  1.00  0.00    +0.270 C 
ATOM     44  C   UNL     1       4.433  13.495  -3.408  1.00  0.00    +0.139 C 
ATOM     45  O   UNL     1       2.723  11.707  -3.300  1.00  0.00    -0.342 OA
ATOM     46  C   UNL     1       3.310  14.542  -3.365  1.00  0.00    +0.167 C 
ATOM     47  C   UNL     1       1.645  12.648  -3.301  1.00  0.00    +0.178 C 
ATOM     48  C   UNL     1       2.080  13.975  -2.653  1.00  0.00    +0.176 C 
BRANCH  44  49
ATOM     49  N   UNL     1       5.575  14.013  -4.201  1.00  0.00    -0.321 NA
ATOM     50  H   UNL     1       5.350  14.963  -4.499  1.00  0.00    +0.119 HD
ATOM     51  H   UNL     1       5.633  13.443  -5.050  1.00  0.00    +0.119 HD
ENDBRANCH  44  49
BRANCH  46  52
ATOM     52  O   UNL     1       3.764  15.712  -2.660  1.00  0.00    -0.388 OA
ATOM     53  H   UNL     1       3.620  15.510  -1.714  1.00  0.00    +0.211 HD
ENDBRANCH  46  52
BRANCH  47  54
ATOM     54  C   UNL     1       1.012  12.787  -4.698  1.00  0.00    +0.191 C 
BRANCH  54  55
ATOM     55  O   UNL     1       0.414  11.560  -5.102  1.00  0.00    -0.394 OA
ATOM     56  H   UNL     1       1.140  10.964  -5.374  1.00  0.00    +0.210 HD
ENDBRANCH  54  55
ENDBRANCH  47  54
BRANCH  48  57
ATOM     57  O   UNL     1       1.059  14.979  -2.622  1.00  0.00    -0.388 OA
ATOM     58  H   UNL     1       1.478  15.823  -2.343  1.00  0.00    +0.211 HD
ENDBRANCH  48  57
ENDBRANCH  42  43
ENDBRANCH   3  42
BRANCH   5  59
ATOM     59  O   UNL     1       3.109   7.007  -5.582  1.00  0.00    -0.320 OA
BRANCH  59  60
ATOM     60  C   UNL     1       3.194   5.934  -6.521  1.00  0.00    +0.273 C 
ATOM     61  C   UNL     1       3.105   4.548  -5.819  1.00  0.00    +0.140 C 
ATOM     62  O   UNL     1       2.081   6.122  -7.408  1.00  0.00    -0.342 OA
ATOM     63  C   UNL     1       2.980   3.440  -6.886  1.00  0.00    +0.174 C 
ATOM     64  C   UNL     1       2.019   5.135  -8.451  1.00  0.00    +0.178 C 
ATOM     65  C   UNL     1       1.833   3.739  -7.858  1.00  0.00    +0.176 C 
BRANCH  61  66
ATOM     66  N   UNL     1       4.263   4.252  -4.951  1.00  0.00    -0.321 NA
ATOM     67  H   UNL     1       3.950   4.259  -3.971  1.00  0.00    +0.119 HD
ATOM     68  H   UNL     1       4.934   5.031  -5.027  1.00  0.00    +0.119 HD
ENDBRANCH  61  66
BRANCH  63  69
ATOM     69  O   UNL     1       2.685   2.173  -6.263  1.00  0.00    -0.343 OA
BRANCH  69  70
ATOM     70  C   UNL     1       3.522   1.119  -6.745  1.00  0.00    +0.270 C 
ATOM     71  C   UNL     1       4.312   0.506  -5.550  1.00  0.00    +0.139 C 
ATOM     72  O   UNL     1       2.699   0.171  -7.442  1.00  0.00    -0.342 OA
ATOM     73  C   UNL     1       4.600  -0.961  -5.884  1.00  0.00    +0.167 C 
ATOM     74  C   UNL     1       2.149  -0.838  -6.579  1.00  0.00    +0.178 C 
ATOM     75  C   UNL     1       3.280  -1.740  -6.027  1.00  0.00    +0.176 C 
BRANCH  71  76
ATOM     76  N   UNL     1       5.556   1.250  -5.219  1.00  0.00    -0.321 NA
ATOM     77  H   UNL     1       6.112   0.618  -4.632  1.00  0.00    +0.119 HD
ATOM     78  H   UNL     1       6.116   1.332  -6.082  1.00  0.00    +0.119 HD
ENDBRANCH  71  76
BRANCH  73  79
ATOM     79  O   UNL     1       5.403  -1.570  -4.858  1.00  0.00    -0.388 OA
ATOM     80  H   UNL     1       6.298  -1.203  -4.990  1.00  0.00    +0.211 HD
ENDBRANCH  73  79
BRANCH  74  81
ATOM     81  C   UNL     1       1.062  -1.593  -7.354  1.00  0.00    +0.191 C 
BRANCH  81  82
ATOM     82  O   UNL     1       0.545  -2.682  -6.583  1.00  0.00    -0.394 OA
ATOM     83  H   UNL     1       0.046  -3.250  -7.198  1.00  0.00    +0.210 HD
ENDBRANCH  81  82
ENDBRANCH  74  81
BRANCH  75  84
ATOM     84  O   UNL     1       3.573  -2.905  -6.811  1.00  0.00    -0.388 OA
ATOM     85  H   UNL     1       4.170  -2.620  -7.539  1.00  0.00    +0.211 HD
ENDBRANCH  75  84
ENDBRANCH  69  70
ENDBRANCH  63  69
BRANCH  64  86
ATOM     86  C   UNL     1       0.853   5.517  -9.366  1.00  0.00    +0.191 C 
BRANCH  86  87
ATOM     87  O   UNL     1       1.143   6.762 -10.011  1.00  0.00    -0.394 OA
ATOM     88  H   UNL     1       2.049   6.653 -10.364  1.00  0.00    +0.210 HD
ENDBRANCH  86  87
ENDBRANCH  64  86
BRANCH  65  89
ATOM     89  O   UNL     1       1.819   2.749  -8.893  1.00  0.00    -0.388 OA
ATOM     90  H   UNL     1       2.732   2.398  -8.937  1.00  0.00    +0.211 HD
ENDBRANCH  65  89
ENDBRANCH  59  60
ENDBRANCH   5  59
BRANCH   4  91
ATOM     91  N   UNL     1       3.809   8.543  -3.270  1.00  0.00    -0.321 NA
ATOM     92  H   UNL     1       4.711   8.703  -2.815  1.00  0.00    +0.119 HD
ATOM     93  H   UNL     1       3.678   7.531  -3.343  1.00  0.00    +0.119 HD
ENDBRANCH   4  91
TORSDOF 36
ENDMDL
MODEL 9
REMARK VINA RESULT:    -6.663      3.685      5.987
REMARK INTER + INTRA:         -23.164
REMARK INTER:                 -17.924
REMARK INTRA:                  -5.240
REMARK UNBOUND:                -6.373
REMARK SMILES N[C@@H]1[C@@H](O[C@@H]2[C@H](N)[C@H](O[C@@H]3O[C@H](CO)[C@@H](O)[C@H](O[C@@H]4O[C@@H](CO)[C@@H](O)[C@H](O)[C@H]4N)[C@H]3N)O[C@@H](CO[C@H]3O[C@@H](CO)[C@@H](O)[C@H](O)[C@H]3N)[C@H]2O[C@H]2O[C@@H](CO)[C@@H](O)[C@@H](O)[C@H]2N)O[C@H](CO)[C@H](O)[C@H]1O
REMARK SMILES IDX 33 1 47 2 5 3 6 4 8 5 32 6 34 7 35 8 36 9 38 10 41 11 37 12
REMARK SMILES IDX 43 13 45 14 39 15 40 16 42 18 44 20 46 22 48 25 49 26 58 27
REMARK SMILES IDX 50 28 56 29 51 30 54 31 59 32 57 35 52 37 53 38 55 40 4 42
REMARK SMILES IDX 3 43 2 44 60 45 66 46 61 47 64 48 1 49 67 52 62 54 63 55
REMARK SMILES IDX 65 57 9 59 10 60 30 61 11 62 17 63 12 64 15 65 31 66 18 69
REMARK SMILES IDX 19 70 28 71 20 72 26 73 21 74 24 75 29 76 27 79 22 81 23 82
REMARK SMILES IDX 25 84 13 86 14 87 16 89 7 91
REMARK H PARENT 40 17 42 19 44 21 46 23 46 24 59 33 59 34 57 36 53 39 55 41
REMARK H PARENT 1 50 1 51 67 53 63 56 65 58 31 67 31 68 29 77 29 78 27 80
REMARK H PARENT 23 83 25 85 14 88 16 90 7 92 7 93
ROOT
ATOM      1  C   UNL     1      -4.834  -8.703  -6.158  1.00  0.00    +0.179 C 
ATOM      2  C   UNL     1      -6.084  -9.594  -5.999  1.00  0.00    +0.183 C 
ATOM      3  C   UNL     1      -6.234 -10.095  -4.548  1.00  0.00    +0.175 C 
ATOM      4  C   UNL     1      -6.171  -8.902  -3.570  1.00  0.00    +0.140 C 
ATOM      5  C   UNL     1      -4.856  -8.112  -3.825  1.00  0.00    +0.273 C 
ATOM      6  O   UNL     1      -4.803  -7.656  -5.170  1.00  0.00    -0.342 OA
ENDROOT
BRANCH   1   7
ATOM      7  C   UNL     1      -3.514  -9.511  -6.190  1.00  0.00    +0.198 C 
BRANCH   7   8
ATOM      8  O   UNL     1      -2.518  -8.837  -6.966  1.00  0.00    -0.348 OA
BRANCH   8   9
ATOM      9  C   UNL     1      -1.477  -9.717  -7.416  1.00  0.00    +0.270 C 
ATOM     10  C   UNL     1      -0.762 -12.025  -7.408  1.00  0.00    +0.178 C 
ATOM     11  C   UNL     1       0.306 -11.467  -8.363  1.00  0.00    +0.176 C 
ATOM     12  O   UNL     1      -1.705 -11.045  -6.954  1.00  0.00    -0.342 OA
ATOM     13  C   UNL     1      -0.307 -10.616  -9.485  1.00  0.00    +0.167 C 
ATOM     14  C   UNL     1      -1.417  -9.671  -8.974  1.00  0.00    +0.139 C 
BRANCH  10  15
ATOM     15  C   UNL     1      -1.548 -13.226  -7.959  1.00  0.00    +0.191 C 
BRANCH  15  16
ATOM     16  O   UNL     1      -2.897 -12.880  -8.262  1.00  0.00    -0.394 OA
ATOM     17  H   UNL     1      -3.379 -12.842  -7.416  1.00  0.00    +0.210 HD
ENDBRANCH  15  16
ENDBRANCH  10  15
BRANCH  11  18
ATOM     18  O   UNL     1       1.149 -12.482  -8.924  1.00  0.00    -0.388 OA
ATOM     19  H   UNL     1       1.792 -12.037  -9.506  1.00  0.00    +0.211 HD
ENDBRANCH  11  18
BRANCH  13  20
ATOM     20  O   UNL     1       0.756  -9.844 -10.081  1.00  0.00    -0.388 OA
ATOM     21  H   UNL     1       1.566 -10.137  -9.622  1.00  0.00    +0.211 HD
ENDBRANCH  13  20
BRANCH  14  22
ATOM     22  N   UNL     1      -2.732 -10.049  -9.576  1.00  0.00    -0.321 NA
ATOM     23  H   UNL     1      -3.446  -9.741  -8.895  1.00  0.00    +0.119 HD
ATOM     24  H   UNL     1      -2.884  -9.403 -10.371  1.00  0.00    +0.119 HD
ENDBRANCH  14  22
ENDBRANCH   8   9
ENDBRANCH   7   8
ENDBRANCH   1   7
BRANCH   2  25
ATOM     25  O   UNL     1      -5.987 -10.733  -6.874  1.00  0.00    -0.342 OA
BRANCH  25  26
ATOM     26  C   UNL     1      -6.956 -10.693  -7.929  1.00  0.00    +0.270 C 
ATOM     27  C   UNL     1      -6.939 -12.074  -8.656  1.00  0.00    +0.139 C 
ATOM     28  O   UNL     1      -6.656  -9.640  -8.843  1.00  0.00    -0.342 OA
ATOM     29  C   UNL     1      -7.934 -12.070  -9.850  1.00  0.00    +0.167 C 
ATOM     30  C   UNL     1      -7.506  -9.571  -9.996  1.00  0.00    +0.178 C 
ATOM     31  C   UNL     1      -8.566 -10.689 -10.064  1.00  0.00    +0.176 C 
BRANCH  27  32
ATOM     32  N   UNL     1      -5.559 -12.479  -9.032  1.00  0.00    -0.321 NA
ATOM     33  H   UNL     1      -4.946 -11.676  -8.853  1.00  0.00    +0.119 HD
ATOM     34  H   UNL     1      -5.260 -13.175  -8.345  1.00  0.00    +0.119 HD
ENDBRANCH  27  32
BRANCH  29  35
ATOM     35  O   UNL     1      -7.335 -12.481 -11.096  1.00  0.00    -0.388 OA
ATOM     36  H   UNL     1      -6.713 -11.756 -11.321  1.00  0.00    +0.211 HD
ENDBRANCH  29  35
BRANCH  30  37
ATOM     37  C   UNL     1      -6.617  -9.431 -11.250  1.00  0.00    +0.191 C 
BRANCH  37  38
ATOM     38  O   UNL     1      -5.342 -10.058 -11.129  1.00  0.00    -0.394 OA
ATOM     39  H   UNL     1      -5.226 -10.301 -10.182  1.00  0.00    +0.210 HD
ENDBRANCH  37  38
ENDBRANCH  30  37
BRANCH  31  40
ATOM     40  O   UNL     1      -9.296 -10.686 -11.296  1.00  0.00    -0.388 OA
ATOM     41  H   UNL     1     -10.116 -10.177 -11.155  1.00  0.00    +0.211 HD
ENDBRANCH  31  40
ENDBRANCH  25  26
ENDBRANCH   2  25
BRANCH   3  42
ATOM     42  O   UNL     1      -7.466 -10.843  -4.462  1.00  0.00    -0.343 OA
BRANCH  42  43
ATOM     43  C   UNL     1      -7.488 -11.831  -3.425  1.00  0.00    +0.270 C 
ATOM     44  C   UNL     1      -7.870 -11.104  -2.109  1.00  0.00    +0.139 C 
ATOM     45  O   UNL     1      -6.193 -12.435  -3.354  1.00  0.00    -0.342 OA
ATOM     46  C   UNL     1      -7.667 -12.022  -0.895  1.00  0.00    +0.167 C 
ATOM     47  C   UNL     1      -6.006 -13.340  -2.261  1.00  0.00    +0.178 C 
ATOM     48  C   UNL     1      -6.265 -12.633  -0.918  1.00  0.00    +0.176 C 
BRANCH  44  49
ATOM     49  N   UNL     1      -9.268 -10.609  -2.140  1.00  0.00    -0.321 NA
ATOM     50  H   UNL     1      -9.623 -10.717  -3.091  1.00  0.00    +0.119 HD
ATOM     51  H   UNL     1      -9.234  -9.603  -1.950  1.00  0.00    +0.119 HD
ENDBRANCH  44  49
BRANCH  46  52
ATOM     52  O   UNL     1      -7.832 -11.266   0.319  1.00  0.00    -0.388 OA
ATOM     53  H   UNL     1      -8.362 -10.484   0.060  1.00  0.00    +0.211 HD
ENDBRANCH  46  52
BRANCH  47  54
ATOM     54  C   UNL     1      -6.790 -14.650  -2.465  1.00  0.00    +0.191 C 
BRANCH  54  55
ATOM     55  O   UNL     1      -6.506 -15.210  -3.743  1.00  0.00    -0.394 OA
ATOM     56  H   UNL     1      -5.734 -15.798  -3.631  1.00  0.00    +0.210 HD
ENDBRANCH  54  55
ENDBRANCH  47  54
BRANCH  48  57
ATOM     57  O   UNL     1      -6.107 -13.475   0.231  1.00  0.00    -0.388 OA
ATOM     58  H   UNL     1      -5.287 -14.003   0.103  1.00  0.00    +0.211 HD
ENDBRANCH  48  57
ENDBRANCH  42  43
ENDBRANCH   3  42
BRANCH   5  59
ATOM     59  O   UNL     1      -4.831  -7.003  -2.923  1.00  0.00    -0.320 OA
BRANCH  59  60
ATOM     60  C   UNL     1      -3.533  -6.442  -2.724  1.00  0.00    +0.273 C 
ATOM     61  C   UNL     1      -2.418  -7.345  -3.329  1.00  0.00    +0.140 C 
ATOM     62  O   UNL     1      -3.567  -5.170  -3.388  1.00  0.00    -0.342 OA
ATOM     63  C   UNL     1      -1.071  -6.595  -3.284  1.00  0.00    +0.174 C 
ATOM     64  C   UNL     1      -2.335  -4.440  -3.269  1.00  0.00    +0.178 C 
ATOM     65  C   UNL     1      -1.190  -5.209  -3.927  1.00  0.00    +0.176 C 
BRANCH  61  66
ATOM     66  N   UNL     1      -2.271  -8.642  -2.639  1.00  0.00    -0.321 NA
ATOM     67  H   UNL     1      -2.996  -9.284  -2.987  1.00  0.00    +0.119 HD
ATOM     68  H   UNL     1      -2.488  -8.506  -1.640  1.00  0.00    +0.119 HD
ENDBRANCH  61  66
BRANCH  63  69
ATOM     69  O   UNL     1      -0.068  -7.318  -4.027  1.00  0.00    -0.343 OA
BRANCH  69  70
ATOM     70  C   UNL     1       1.092  -7.607  -3.242  1.00  0.00    +0.270 C 
ATOM     71  C   UNL     1       1.714  -8.952  -3.723  1.00  0.00    +0.139 C 
ATOM     72  O   UNL     1       1.988  -6.489  -3.332  1.00  0.00    -0.342 OA
ATOM     73  C   UNL     1       3.220  -8.896  -3.444  1.00  0.00    +0.167 C 
ATOM     74  C   UNL     1       2.886  -6.577  -4.450  1.00  0.00    +0.178 C 
ATOM     75  C   UNL     1       3.867  -7.760  -4.254  1.00  0.00    +0.176 C 
BRANCH  71  76
ATOM     76  N   UNL     1       1.084 -10.149  -3.108  1.00  0.00    -0.321 NA
ATOM     77  H   UNL     1       1.391 -10.949  -3.673  1.00  0.00    +0.119 HD
ATOM     78  H   UNL     1       1.536 -10.313  -2.194  1.00  0.00    +0.119 HD
ENDBRANCH  71  76
BRANCH  73  79
ATOM     79  O   UNL     1       3.849 -10.143  -3.786  1.00  0.00    -0.388 OA
ATOM     80  H   UNL     1       3.349 -10.821  -3.291  1.00  0.00    +0.211 HD
ENDBRANCH  73  79
BRANCH  74  81
ATOM     81  C   UNL     1       3.569  -5.214  -4.627  1.00  0.00    +0.191 C 
BRANCH  81  82
ATOM     82  O   UNL     1       4.632  -5.294  -5.581  1.00  0.00    -0.394 OA
ATOM     83  H   UNL     1       4.728  -4.406  -5.970  1.00  0.00    +0.210 HD
ENDBRANCH  81  82
ENDBRANCH  74  81
BRANCH  75  84
ATOM     84  O   UNL     1       5.097  -7.432  -3.594  1.00  0.00    -0.388 OA
ATOM     85  H   UNL     1       5.687  -8.214  -3.679  1.00  0.00    +0.211 HD
ENDBRANCH  75  84
ENDBRANCH  69  70
ENDBRANCH  63  69
BRANCH  64  86
ATOM     86  C   UNL     1      -2.551  -3.077  -3.934  1.00  0.00    +0.191 C 
BRANCH  86  87
ATOM     87  O   UNL     1      -3.629  -3.173  -4.873  1.00  0.00    -0.394 OA
ATOM     88  H   UNL     1      -4.394  -3.470  -4.341  1.00  0.00    +0.210 HD
ENDBRANCH  86  87
ENDBRANCH  64  86
BRANCH  65  89
ATOM     89  O   UNL     1       0.048  -4.504  -3.769  1.00  0.00    -0.388 OA
ATOM     90  H   UNL     1       0.388  -4.763  -2.889  1.00  0.00    +0.211 HD
ENDBRANCH  65  89
ENDBRANCH  59  60
ENDBRANCH   5  59
BRANCH   4  91
ATOM     91  N   UNL     1      -7.382  -8.051  -3.691  1.00  0.00    -0.321 NA
ATOM     92  H   UNL     1      -7.285  -7.491  -4.541  1.00  0.00    +0.119 HD
ATOM     93  H   UNL     1      -7.389  -7.406  -2.897  1.00  0.00    +0.119 HD
ENDBRANCH   4  91
TORSDOF 36
ENDMDL
