MODEL 1
REMARK VINA RESULT:    -6.068      0.000      0.000
REMARK INTER + INTRA:         -22.272
REMARK INTER:                 -15.290
REMARK INTRA:                  -6.982
REMARK UNBOUND:                -6.982
REMARK SMILES N[C@@H]1[C@@H](O[C@@H]2[C@H](N)[C@H](O[C@@H]3O[C@H](CO)[C@@H](O)[C@H](O[C@@H]4O[C@@H](CO)[C@@H](O)[C@H](O)[C@H]4N)[C@H]3N)O[C@@H](CO[C@H]3O[C@@H](CO)[C@@H](O)[C@H](O)[C@H]3N)[C@H]2O[C@H]2O[C@@H](CO)[C@@H](O)[C@@H](O)[C@H]2N)O[C@H](CO)[C@H](O)[C@H]1O
REMARK SMILES IDX 33 1 47 2 5 3 6 4 8 5 32 6 34 7 35 8 36 9 38 10 41 11 37 12
REMARK SMILES IDX 43 13 45 14 39 15 40 16 42 18 44 20 46 22 48 25 49 26 58 27
REMARK SMILES IDX 50 28 56 29 51 30 54 31 59 32 57 35 52 37 53 38 55 40 4 42
REMARK SMILES IDX 3 43 2 44 60 45 66 46 61 47 64 48 1 49 67 52 62 54 63 55
REMARK SMILES IDX 65 57 9 59 10 60 30 61 11 62 17 63 12 64 15 65 31 66 18 69
REMARK SMILES IDX 19 70 28 71 20 72 26 73 21 74 24 75 29 76 27 79 22 81 23 82
REMARK SMILES IDX 25 84 13 86 14 87 16 89 7 91
REMARK H PARENT 40 17 42 19 44 21 46 23 46 24 59 33 59 34 57 36 53 39 55 41
REMARK H PARENT 1 50 1 51 67 53 63 56 65 58 31 67 31 68 29 77 29 78 27 80
REMARK H PARENT 23 83 25 85 14 88 16 90 7 92 7 93
ROOT
ATOM      1  C   UNL     1      -6.675  -9.781  12.198  1.00  0.00    +0.179 C 
ATOM      2  C   UNL     1      -7.724 -10.121  11.119  1.00  0.00    +0.183 C 
ATOM      3  C   UNL     1      -7.700 -11.622  10.766  1.00  0.00    +0.175 C 
ATOM      4  C   UNL     1      -7.810 -12.467  12.054  1.00  0.00    +0.140 C 
ATOM      5  C   UNL     1      -6.683 -12.037  13.036  1.00  0.00    +0.273 C 
ATOM      6  O   UNL     1      -6.789 -10.652  13.338  1.00  0.00    -0.342 OA
ENDROOT
BRANCH   1   7
ATOM      7  C   UNL     1      -5.230  -9.734  11.645  1.00  0.00    +0.198 C 
BRANCH   7   8
ATOM      8  O   UNL     1      -4.915  -8.432  11.140  1.00  0.00    -0.348 OA
BRANCH   8   9
ATOM      9  C   UNL     1      -3.730  -8.424  10.330  1.00  0.00    +0.270 C 
ATOM     10  C   UNL     1      -2.003  -9.848   9.420  1.00  0.00    +0.178 C 
ATOM     11  C   UNL     1      -1.627  -8.549   8.686  1.00  0.00    +0.176 C 
ATOM     12  O   UNL     1      -3.154  -9.725  10.267  1.00  0.00    -0.342 OA
ATOM     13  C   UNL     1      -2.840  -7.893   8.009  1.00  0.00    +0.167 C 
ATOM     14  C   UNL     1      -4.099  -7.906   8.906  1.00  0.00    +0.139 C 
BRANCH  10  15
ATOM     15  C   UNL     1      -2.212 -11.063   8.502  1.00  0.00    +0.191 C 
BRANCH  15  16
ATOM     16  O   UNL     1      -0.993 -11.482   7.893  1.00  0.00    -0.394 OA
ATOM     17  H   UNL     1      -0.880 -10.950   7.085  1.00  0.00    +0.210 HD
ENDBRANCH  15  16
ENDBRANCH  10  15
BRANCH  11  18
ATOM     18  O   UNL     1      -0.570  -8.724   7.734  1.00  0.00    -0.388 OA
ATOM     19  H   UNL     1       0.040  -9.393   8.097  1.00  0.00    +0.211 HD
ENDBRANCH  11  18
BRANCH  13  20
ATOM     20  O   UNL     1      -2.482  -6.534   7.690  1.00  0.00    -0.388 OA
ATOM     21  H   UNL     1      -2.056  -6.190   8.498  1.00  0.00    +0.211 HD
ENDBRANCH  13  20
BRANCH  14  22
ATOM     22  N   UNL     1      -5.164  -8.750   8.284  1.00  0.00    -0.321 NA
ATOM     23  H   UNL     1      -4.870  -8.887   7.303  1.00  0.00    +0.119 HD
ATOM     24  H   UNL     1      -5.056  -9.698   8.686  1.00  0.00    +0.119 HD
ENDBRANCH  14  22
ENDBRANCH   8   9
ENDBRANCH   7   8
ENDBRANCH   1   7
BRANCH   2  25
ATOM     25  O   UNL     1      -7.462  -9.361   9.924  1.00  0.00    -0.342 OA
BRANCH  25  26
ATOM     26  C   UNL     1      -8.286  -8.192   9.830  1.00  0.00    +0.270 C 
ATOM     27  C   UNL     1      -8.985  -8.204   8.434  1.00  0.00    +0.139 C 
ATOM     28  O   UNL     1      -7.501  -7.014   9.989  1.00  0.00    -0.342 OA
ATOM     29  C   UNL     1      -9.853  -6.927   8.253  1.00  0.00    +0.167 C 
ATOM     30  C   UNL     1      -8.210  -5.779   9.813  1.00  0.00    +0.178 C 
ATOM     31  C   UNL     1      -9.693  -5.954   9.428  1.00  0.00    +0.176 C 
BRANCH  27  32
ATOM     32  N   UNL     1      -8.009  -8.424   7.334  1.00  0.00    -0.321 NA
ATOM     33  H   UNL     1      -8.533  -8.395   6.453  1.00  0.00    +0.119 HD
ATOM     34  H   UNL     1      -7.418  -7.590   7.296  1.00  0.00    +0.119 HD
ENDBRANCH  27  32
BRANCH  29  35
ATOM     35  O   UNL     1      -9.562  -6.205   7.038  1.00  0.00    -0.388 OA
ATOM     36  H   UNL     1     -10.439  -6.048   6.629  1.00  0.00    +0.211 HD
ENDBRANCH  29  35
BRANCH  30  37
ATOM     37  C   UNL     1      -7.389  -4.876   8.868  1.00  0.00    +0.191 C 
BRANCH  37  38
ATOM     38  O   UNL     1      -7.759  -3.499   8.917  1.00  0.00    -0.394 OA
ATOM     39  H   UNL     1      -7.527  -3.105   8.045  1.00  0.00    +0.210 HD
ENDBRANCH  37  38
ENDBRANCH  30  37
BRANCH  31  40
ATOM     40  O   UNL     1     -10.334  -4.715   9.109  1.00  0.00    -0.388 OA
ATOM     41  H   UNL     1      -9.816  -4.284   8.403  1.00  0.00    +0.211 HD
ENDBRANCH  31  40
ENDBRANCH  25  26
ENDBRANCH   2  25
BRANCH   3  42
ATOM     42  O   UNL     1      -8.762 -11.873   9.821  1.00  0.00    -0.343 OA
BRANCH  42  43
ATOM     43  C   UNL     1      -8.467 -12.889   8.855  1.00  0.00    +0.270 C 
ATOM     44  C   UNL     1      -7.617 -12.225   7.740  1.00  0.00    +0.139 C 
ATOM     45  O   UNL     1      -9.704 -13.407   8.357  1.00  0.00    -0.342 OA
ATOM     46  C   UNL     1      -7.469 -13.161   6.531  1.00  0.00    +0.167 C 
ATOM     47  C   UNL     1      -9.581 -14.328   7.268  1.00  0.00    +0.178 C 
ATOM     48  C   UNL     1      -8.839 -13.677   6.086  1.00  0.00    +0.176 C 
BRANCH  44  49
ATOM     49  N   UNL     1      -6.277 -11.824   8.235  1.00  0.00    -0.321 NA
ATOM     50  H   UNL     1      -5.639 -11.798   7.439  1.00  0.00    +0.119 HD
ATOM     51  H   UNL     1      -5.949 -12.573   8.852  1.00  0.00    +0.119 HD
ENDBRANCH  44  49
BRANCH  46  52
ATOM     52  O   UNL     1      -6.855 -12.452   5.440  1.00  0.00    -0.388 OA
ATOM     53  H   UNL     1      -7.363 -12.719   4.647  1.00  0.00    +0.211 HD
ENDBRANCH  46  52
BRANCH  47  54
ATOM     54  C   UNL     1      -9.005 -15.680   7.728  1.00  0.00    +0.191 C 
BRANCH  54  55
ATOM     55  O   UNL     1      -9.731 -16.179   8.847  1.00  0.00    -0.394 OA
ATOM     56  H   UNL     1     -10.155 -17.013   8.563  1.00  0.00    +0.210 HD
ENDBRANCH  54  55
ENDBRANCH  47  54
BRANCH  48  57
ATOM     57  O   UNL     1      -8.664 -14.538   4.955  1.00  0.00    -0.388 OA
ATOM     58  H   UNL     1      -7.780 -14.347   4.568  1.00  0.00    +0.211 HD
ENDBRANCH  48  57
ENDBRANCH  42  43
ENDBRANCH   3  42
BRANCH   5  59
ATOM     59  O   UNL     1      -6.820 -12.818  14.225  1.00  0.00    -0.320 OA
BRANCH  59  60
ATOM     60  C   UNL     1      -5.609 -13.444  14.654  1.00  0.00    +0.273 C 
ATOM     61  C   UNL     1      -4.974 -14.302  13.521  1.00  0.00    +0.140 C 
ATOM     62  O   UNL     1      -4.737 -12.364  15.018  1.00  0.00    -0.342 OA
ATOM     63  C   UNL     1      -3.571 -14.771  13.960  1.00  0.00    +0.174 C 
ATOM     64  C   UNL     1      -3.461 -12.811  15.506  1.00  0.00    +0.178 C 
ATOM     65  C   UNL     1      -2.714 -13.587  14.422  1.00  0.00    +0.176 C 
BRANCH  61  66
ATOM     66  N   UNL     1      -5.782 -15.481  13.152  1.00  0.00    -0.321 NA
ATOM     67  H   UNL     1      -5.267 -16.330  13.422  1.00  0.00    +0.119 HD
ATOM     68  H   UNL     1      -5.849 -15.521  12.124  1.00  0.00    +0.119 HD
ENDBRANCH  61  66
BRANCH  63  69
ATOM     69  O   UNL     1      -2.878 -15.385  12.854  1.00  0.00    -0.343 OA
BRANCH  69  70
ATOM     70  C   UNL     1      -2.441 -14.430  11.883  1.00  0.00    +0.270 C 
ATOM     71  C   UNL     1      -0.957 -14.719  11.512  1.00  0.00    +0.139 C 
ATOM     72  O   UNL     1      -3.339 -14.481  10.764  1.00  0.00    -0.342 OA
ATOM     73  C   UNL     1      -0.734 -14.242  10.073  1.00  0.00    +0.167 C 
ATOM     74  C   UNL     1      -2.957 -15.457   9.781  1.00  0.00    +0.178 C 
ATOM     75  C   UNL     1      -1.626 -15.041   9.107  1.00  0.00    +0.176 C 
BRANCH  71  76
ATOM     76  N   UNL     1       0.019 -14.107  12.452  1.00  0.00    -0.321 NA
ATOM     77  H   UNL     1       0.486 -14.892  12.920  1.00  0.00    +0.119 HD
ATOM     78  H   UNL     1       0.773 -13.677  11.893  1.00  0.00    +0.119 HD
ENDBRANCH  71  76
BRANCH  73  79
ATOM     79  O   UNL     1       0.643 -14.401   9.690  1.00  0.00    -0.388 OA
ATOM     80  H   UNL     1       1.154 -13.988  10.412  1.00  0.00    +0.211 HD
ENDBRANCH  73  79
BRANCH  74  81
ATOM     81  C   UNL     1      -4.128 -15.641   8.806  1.00  0.00    +0.191 C 
BRANCH  81  82
ATOM     82  O   UNL     1      -3.758 -16.491   7.716  1.00  0.00    -0.394 OA
ATOM     83  H   UNL     1      -4.580 -16.891   7.380  1.00  0.00    +0.210 HD
ENDBRANCH  81  82
ENDBRANCH  74  81
BRANCH  75  84
ATOM     84  O   UNL     1      -1.764 -14.246   7.921  1.00  0.00    -0.388 OA
ATOM     85  H   UNL     1      -1.997 -14.860   7.188  1.00  0.00    +0.211 HD
ENDBRANCH  75  84
ENDBRANCH  69  70
ENDBRANCH  63  69
BRANCH  64  86
ATOM     86  C   UNL     1      -2.683 -11.567  15.944  1.00  0.00    +0.191 C 
BRANCH  86  87
ATOM     87  O   UNL     1      -1.859 -11.118  14.862  1.00  0.00    -0.394 OA
ATOM     88  H   UNL     1      -1.529 -11.939  14.446  1.00  0.00    +0.210 HD
ENDBRANCH  86  87
ENDBRANCH  64  86
BRANCH  65  89
ATOM     89  O   UNL     1      -1.462 -14.073  14.922  1.00  0.00    -0.388 OA
ATOM     90  H   UNL     1      -1.650 -14.963  15.284  1.00  0.00    +0.211 HD
ENDBRANCH  65  89
ENDBRANCH  59  60
ENDBRANCH   5  59
BRANCH   4  91
ATOM     91  N   UNL     1      -9.164 -12.349  12.651  1.00  0.00    -0.321 NA
ATOM     92  H   UNL     1      -9.156 -11.547  13.286  1.00  0.00    +0.119 HD
ATOM     93  H   UNL     1      -9.328 -13.186  13.216  1.00  0.00    +0.119 HD
ENDBRANCH   4  91
TORSDOF 36
ENDMDL
MODEL 2
REMARK VINA RESULT:    -6.020     24.982     28.631
REMARK INTER + INTRA:         -22.151
REMARK INTER:                 -14.657
REMARK INTRA:                  -7.494
REMARK UNBOUND:                -6.982
REMARK SMILES N[C@@H]1[C@@H](O[C@@H]2[C@H](N)[C@H](O[C@@H]3O[C@H](CO)[C@@H](O)[C@H](O[C@@H]4O[C@@H](CO)[C@@H](O)[C@H](O)[C@H]4N)[C@H]3N)O[C@@H](CO[C@H]3O[C@@H](CO)[C@@H](O)[C@H](O)[C@H]3N)[C@H]2O[C@H]2O[C@@H](CO)[C@@H](O)[C@@H](O)[C@H]2N)O[C@H](CO)[C@H](O)[C@H]1O
REMARK SMILES IDX 33 1 47 2 5 3 6 4 8 5 32 6 34 7 35 8 36 9 38 10 41 11 37 12
REMARK SMILES IDX 43 13 45 14 39 15 40 16 42 18 44 20 46 22 48 25 49 26 58 27
REMARK SMILES IDX 50 28 56 29 51 30 54 31 59 32 57 35 52 37 53 38 55 40 4 42
REMARK SMILES IDX 3 43 2 44 60 45 66 46 61 47 64 48 1 49 67 52 62 54 63 55
REMARK SMILES IDX 65 57 9 59 10 60 30 61 11 62 17 63 12 64 15 65 31 66 18 69
REMARK SMILES IDX 19 70 28 71 20 72 26 73 21 74 24 75 29 76 27 79 22 81 23 82
REMARK SMILES IDX 25 84 13 86 14 87 16 89 7 91
REMARK H PARENT 40 17 42 19 44 21 46 23 46 24 59 33 59 34 57 36 53 39 55 41
REMARK H PARENT 1 50 1 51 67 53 63 56 65 58 31 67 31 68 29 77 29 78 27 80
REMARK H PARENT 23 83 25 85 14 88 16 90 7 92 7 93
ROOT
ATOM      1  C   UNL     1      -0.135 -12.475 -17.619  1.00  0.00    +0.179 C 
ATOM      2  C   UNL     1      -0.846 -13.734 -17.080  1.00  0.00    +0.183 C 
ATOM      3  C   UNL     1      -0.409 -14.996 -17.850  1.00  0.00    +0.175 C 
ATOM      4  C   UNL     1       1.131 -15.092 -17.874  1.00  0.00    +0.140 C 
ATOM      5  C   UNL     1       1.709 -13.773 -18.461  1.00  0.00    +0.273 C 
ATOM      6  O   UNL     1       1.291 -12.659 -17.682  1.00  0.00    -0.342 OA
ENDROOT
BRANCH   1   7
ATOM      7  C   UNL     1      -0.717 -11.980 -18.966  1.00  0.00    +0.198 C 
BRANCH   7   8
ATOM      8  O   UNL     1      -0.834 -10.554 -18.982  1.00  0.00    -0.348 OA
BRANCH   8   9
ATOM      9  C   UNL     1      -2.026 -10.103 -19.644  1.00  0.00    +0.270 C 
ATOM     10  C   UNL     1      -4.145 -10.855 -20.529  1.00  0.00    +0.178 C 
ATOM     11  C   UNL     1      -4.357  -9.342 -20.704  1.00  0.00    +0.176 C 
ATOM     12  O   UNL     1      -2.888 -11.201 -19.932  1.00  0.00    -0.342 OA
ATOM     13  C   UNL     1      -4.032  -8.559 -19.424  1.00  0.00    +0.167 C 
ATOM     14  C   UNL     1      -2.740  -9.056 -18.736  1.00  0.00    +0.139 C 
BRANCH  10  15
ATOM     15  C   UNL     1      -5.258 -11.571 -19.747  1.00  0.00    +0.191 C 
BRANCH  15  16
ATOM     16  O   UNL     1      -4.777 -12.113 -18.519  1.00  0.00    -0.394 OA
ATOM     17  H   UNL     1      -4.012 -11.572 -18.250  1.00  0.00    +0.210 HD
ENDBRANCH  15  16
ENDBRANCH  10  15
BRANCH  11  18
ATOM     18  O   UNL     1      -5.673  -9.006 -21.162  1.00  0.00    -0.388 OA
ATOM     19  H   UNL     1      -5.659  -8.066 -21.421  1.00  0.00    +0.211 HD
ENDBRANCH  11  18
BRANCH  13  20
ATOM     20  O   UNL     1      -3.889  -7.169 -19.783  1.00  0.00    -0.388 OA
ATOM     21  H   UNL     1      -4.492  -7.044 -20.542  1.00  0.00    +0.211 HD
ENDBRANCH  13  20
BRANCH  14  22
ATOM     22  N   UNL     1      -3.061  -9.633 -17.395  1.00  0.00    -0.321 NA
ATOM     23  H   UNL     1      -4.064  -9.876 -17.433  1.00  0.00    +0.119 HD
ATOM     24  H   UNL     1      -2.605 -10.562 -17.362  1.00  0.00    +0.119 HD
ENDBRANCH  14  22
ENDBRANCH   8   9
ENDBRANCH   7   8
ENDBRANCH   1   7
BRANCH   2  25
ATOM     25  O   UNL     1      -2.272 -13.583 -17.207  1.00  0.00    -0.342 OA
BRANCH  25  26
ATOM     26  C   UNL     1      -2.915 -13.394 -15.940  1.00  0.00    +0.270 C 
ATOM     27  C   UNL     1      -4.035 -14.472 -15.800  1.00  0.00    +0.139 C 
ATOM     28  O   UNL     1      -3.465 -12.082 -15.852  1.00  0.00    -0.342 OA
ATOM     29  C   UNL     1      -4.806 -14.279 -14.464  1.00  0.00    +0.167 C 
ATOM     30  C   UNL     1      -4.221 -11.815 -14.663  1.00  0.00    +0.178 C 
ATOM     31  C   UNL     1      -4.346 -13.024 -13.712  1.00  0.00    +0.176 C 
BRANCH  27  32
ATOM     32  N   UNL     1      -4.916 -14.507 -16.997  1.00  0.00    -0.321 NA
ATOM     33  H   UNL     1      -4.474 -13.926 -17.717  1.00  0.00    +0.119 HD
ATOM     34  H   UNL     1      -4.857 -15.456 -17.376  1.00  0.00    +0.119 HD
ENDBRANCH  27  32
BRANCH  29  35
ATOM     35  O   UNL     1      -6.236 -14.192 -14.636  1.00  0.00    -0.388 OA
ATOM     36  H   UNL     1      -6.462 -14.958 -15.205  1.00  0.00    +0.211 HD
ENDBRANCH  29  35
BRANCH  30  37
ATOM     37  C   UNL     1      -5.558 -11.161 -15.070  1.00  0.00    +0.191 C 
BRANCH  37  38
ATOM     38  O   UNL     1      -6.161 -11.743 -16.224  1.00  0.00    -0.394 OA
ATOM     39  H   UNL     1      -5.435 -12.115 -16.775  1.00  0.00    +0.210 HD
ENDBRANCH  37  38
ENDBRANCH  30  37
BRANCH  31  40
ATOM     40  O   UNL     1      -5.229 -12.777 -12.613  1.00  0.00    -0.388 OA
ATOM     41  H   UNL     1      -4.717 -12.329 -11.914  1.00  0.00    +0.211 HD
ENDBRANCH  31  40
ENDBRANCH  25  26
ENDBRANCH   2  25
BRANCH   3  42
ATOM     42  O   UNL     1      -1.046 -16.136 -17.232  1.00  0.00    -0.343 OA
BRANCH  42  43
ATOM     43  C   UNL     1      -1.325 -17.217 -18.130  1.00  0.00    +0.270 C 
ATOM     44  C   UNL     1      -2.869 -17.350 -18.218  1.00  0.00    +0.139 C 
ATOM     45  O   UNL     1      -0.709 -18.399 -17.613  1.00  0.00    -0.342 OA
ATOM     46  C   UNL     1      -3.268 -18.641 -18.948  1.00  0.00    +0.167 C 
ATOM     47  C   UNL     1      -1.023 -19.605 -18.318  1.00  0.00    +0.178 C 
ATOM     48  C   UNL     1      -2.544 -19.843 -18.338  1.00  0.00    +0.176 C 
BRANCH  44  49
ATOM     49  N   UNL     1      -3.484 -16.180 -18.891  1.00  0.00    -0.321 NA
ATOM     50  H   UNL     1      -3.783 -15.521 -18.171  1.00  0.00    +0.119 HD
ATOM     51  H   UNL     1      -4.334 -16.514 -19.356  1.00  0.00    +0.119 HD
ENDBRANCH  44  49
BRANCH  46  52
ATOM     52  O   UNL     1      -4.689 -18.842 -18.839  1.00  0.00    -0.388 OA
ATOM     53  H   UNL     1      -4.817 -19.280 -17.973  1.00  0.00    +0.211 HD
ENDBRANCH  46  52
BRANCH  47  54
ATOM     54  C   UNL     1      -0.342 -19.651 -19.699  1.00  0.00    +0.191 C 
BRANCH  54  55
ATOM     55  O   UNL     1      -0.317 -20.983 -20.202  1.00  0.00    -0.394 OA
ATOM     56  H   UNL     1       0.031 -20.937 -21.114  1.00  0.00    +0.210 HD
ENDBRANCH  54  55
ENDBRANCH  47  54
BRANCH  48  57
ATOM     57  O   UNL     1      -2.945 -21.029 -19.035  1.00  0.00    -0.388 OA
ATOM     58  H   UNL     1      -2.264 -21.218 -19.719  1.00  0.00    +0.211 HD
ENDBRANCH  48  57
ENDBRANCH  42  43
ENDBRANCH   3  42
BRANCH   5  59
ATOM     59  O   UNL     1       3.134 -13.879 -18.453  1.00  0.00    -0.320 OA
BRANCH  59  60
ATOM     60  C   UNL     1       3.787 -12.892 -17.652  1.00  0.00    +0.273 C 
ATOM     61  C   UNL     1       4.948 -13.508 -16.816  1.00  0.00    +0.140 C 
ATOM     62  O   UNL     1       4.295 -11.927 -18.585  1.00  0.00    -0.342 OA
ATOM     63  C   UNL     1       5.753 -12.375 -16.146  1.00  0.00    +0.174 C 
ATOM     64  C   UNL     1       4.971 -10.830 -17.948  1.00  0.00    +0.178 C 
ATOM     65  C   UNL     1       6.193 -11.328 -17.176  1.00  0.00    +0.176 C 
BRANCH  61  66
ATOM     66  N   UNL     1       4.489 -14.452 -15.778  1.00  0.00    -0.321 NA
ATOM     67  H   UNL     1       5.093 -15.285 -15.801  1.00  0.00    +0.119 HD
ATOM     68  H   UNL     1       3.551 -14.791 -16.037  1.00  0.00    +0.119 HD
ENDBRANCH  61  66
BRANCH  63  69
ATOM     69  O   UNL     1       6.953 -12.900 -15.543  1.00  0.00    -0.343 OA
BRANCH  69  70
ATOM     70  C   UNL     1       7.041 -12.598 -14.148  1.00  0.00    +0.270 C 
ATOM     71  C   UNL     1       7.530 -13.862 -13.380  1.00  0.00    +0.139 C 
ATOM     72  O   UNL     1       7.896 -11.455 -13.987  1.00  0.00    -0.342 OA
ATOM     73  C   UNL     1       8.284 -13.388 -12.133  1.00  0.00    +0.167 C 
ATOM     74  C   UNL     1       9.284 -11.804 -13.863  1.00  0.00    +0.178 C 
ATOM     75  C   UNL     1       9.524 -12.574 -12.541  1.00  0.00    +0.176 C 
BRANCH  71  76
ATOM     76  N   UNL     1       6.435 -14.806 -13.036  1.00  0.00    -0.321 NA
ATOM     77  H   UNL     1       5.736 -14.250 -12.529  1.00  0.00    +0.119 HD
ATOM     78  H   UNL     1       5.950 -15.063 -13.910  1.00  0.00    +0.119 HD
ENDBRANCH  71  76
BRANCH  73  79
ATOM     79  O   UNL     1       8.693 -14.507 -11.328  1.00  0.00    -0.388 OA
ATOM     80  H   UNL     1       8.091 -14.496 -10.559  1.00  0.00    +0.211 HD
ENDBRANCH  73  79
BRANCH  74  81
ATOM     81  C   UNL     1      10.117 -10.523 -14.008  1.00  0.00    +0.191 C 
BRANCH  81  82
ATOM     82  O   UNL     1       9.594  -9.686 -15.044  1.00  0.00    -0.394 OA
ATOM     83  H   UNL     1      10.264  -9.000 -15.215  1.00  0.00    +0.210 HD
ENDBRANCH  81  82
ENDBRANCH  74  81
BRANCH  75  84
ATOM     84  O   UNL     1       9.872 -11.760 -11.413  1.00  0.00    -0.388 OA
ATOM     85  H   UNL     1      10.771 -11.399 -11.585  1.00  0.00    +0.211 HD
ENDBRANCH  75  84
ENDBRANCH  69  70
ENDBRANCH  63  69
BRANCH  64  86
ATOM     86  C   UNL     1       5.367  -9.842 -19.049  1.00  0.00    +0.191 C 
BRANCH  86  87
ATOM     87  O   UNL     1       5.393  -8.516 -18.509  1.00  0.00    -0.394 OA
ATOM     88  H   UNL     1       4.549  -8.115 -18.796  1.00  0.00    +0.210 HD
ENDBRANCH  86  87
ENDBRANCH  64  86
BRANCH  65  89
ATOM     89  O   UNL     1       6.841 -10.242 -16.502  1.00  0.00    -0.388 OA
ATOM     90  H   UNL     1       6.464 -10.229 -15.599  1.00  0.00    +0.211 HD
ENDBRANCH  65  89
ENDBRANCH  59  60
ENDBRANCH   5  59
BRANCH   4  91
ATOM     91  N   UNL     1       1.665 -15.400 -16.524  1.00  0.00    -0.321 NA
ATOM     92  H   UNL     1       0.882 -15.707 -15.942  1.00  0.00    +0.119 HD
ATOM     93  H   UNL     1       2.020 -14.528 -16.124  1.00  0.00    +0.119 HD
ENDBRANCH   4  91
TORSDOF 36
ENDMDL
MODEL 3
REMARK VINA RESULT:    -5.977     23.930     28.580
REMARK INTER + INTRA:         -22.045
REMARK INTER:                 -15.409
REMARK INTRA:                  -6.636
REMARK UNBOUND:                -6.982
REMARK SMILES N[C@@H]1[C@@H](O[C@@H]2[C@H](N)[C@H](O[C@@H]3O[C@H](CO)[C@@H](O)[C@H](O[C@@H]4O[C@@H](CO)[C@@H](O)[C@H](O)[C@H]4N)[C@H]3N)O[C@@H](CO[C@H]3O[C@@H](CO)[C@@H](O)[C@H](O)[C@H]3N)[C@H]2O[C@H]2O[C@@H](CO)[C@@H](O)[C@@H](O)[C@H]2N)O[C@H](CO)[C@H](O)[C@H]1O
REMARK SMILES IDX 33 1 47 2 5 3 6 4 8 5 32 6 34 7 35 8 36 9 38 10 41 11 37 12
REMARK SMILES IDX 43 13 45 14 39 15 40 16 42 18 44 20 46 22 48 25 49 26 58 27
REMARK SMILES IDX 50 28 56 29 51 30 54 31 59 32 57 35 52 37 53 38 55 40 4 42
REMARK SMILES IDX 3 43 2 44 60 45 66 46 61 47 64 48 1 49 67 52 62 54 63 55
REMARK SMILES IDX 65 57 9 59 10 60 30 61 11 62 17 63 12 64 15 65 31 66 18 69
REMARK SMILES IDX 19 70 28 71 20 72 26 73 21 74 24 75 29 76 27 79 22 81 23 82
REMARK SMILES IDX 25 84 13 86 14 87 16 89 7 91
REMARK H PARENT 40 17 42 19 44 21 46 23 46 24 59 33 59 34 57 36 53 39 55 41
REMARK H PARENT 1 50 1 51 67 53 63 56 65 58 31 67 31 68 29 77 29 78 27 80
REMARK H PARENT 23 83 25 85 14 88 16 90 7 92 7 93
ROOT
ATOM      1  C   UNL     1      -2.530 -15.735 -18.183  1.00  0.00    +0.179 C 
ATOM      2  C   UNL     1      -1.776 -16.710 -17.256  1.00  0.00    +0.183 C 
ATOM      3  C   UNL     1      -2.740 -17.408 -16.275  1.00  0.00    +0.175 C 
ATOM      4  C   UNL     1      -3.914 -18.043 -17.052  1.00  0.00    +0.140 C 
ATOM      5  C   UNL     1      -4.593 -16.946 -17.920  1.00  0.00    +0.273 C 
ATOM      6  O   UNL     1      -3.653 -16.372 -18.819  1.00  0.00    -0.342 OA
ENDROOT
BRANCH   1   7
ATOM      7  C   UNL     1      -2.932 -14.417 -17.478  1.00  0.00    +0.198 C 
BRANCH   7   8
ATOM      8  O   UNL     1      -3.439 -13.465 -18.418  1.00  0.00    -0.348 OA
BRANCH   8   9
ATOM      9  C   UNL     1      -2.896 -12.150 -18.224  1.00  0.00    +0.270 C 
ATOM     10  C   UNL     1      -0.879 -10.839 -18.459  1.00  0.00    +0.178 C 
ATOM     11  C   UNL     1      -1.839  -9.700 -18.076  1.00  0.00    +0.176 C 
ATOM     12  O   UNL     1      -1.509 -12.125 -18.547  1.00  0.00    -0.342 OA
ATOM     13  C   UNL     1      -3.124  -9.716 -18.918  1.00  0.00    +0.167 C 
ATOM     14  C   UNL     1      -3.693 -11.141 -19.105  1.00  0.00    +0.139 C 
BRANCH  10  15
ATOM     15  C   UNL     1      -0.091 -10.603 -19.758  1.00  0.00    +0.191 C 
BRANCH  15  16
ATOM     16  O   UNL     1       1.142  -9.932 -19.513  1.00  0.00    -0.394 OA
ATOM     17  H   UNL     1       1.809 -10.618 -19.331  1.00  0.00    +0.210 HD
ENDBRANCH  15  16
ENDBRANCH  10  15
BRANCH  11  18
ATOM     18  O   UNL     1      -1.230  -8.405 -18.137  1.00  0.00    -0.388 OA
ATOM     19  H   UNL     1      -1.255  -8.030 -17.237  1.00  0.00    +0.211 HD
ENDBRANCH  11  18
BRANCH  13  20
ATOM     20  O   UNL     1      -4.095  -8.885 -18.252  1.00  0.00    -0.388 OA
ATOM     21  H   UNL     1      -4.948  -9.112 -18.669  1.00  0.00    +0.211 HD
ENDBRANCH  13  20
BRANCH  14  22
ATOM     22  N   UNL     1      -3.646 -11.529 -20.547  1.00  0.00    -0.321 NA
ATOM     23  H   UNL     1      -4.598 -11.857 -20.776  1.00  0.00    +0.119 HD
ATOM     24  H   UNL     1      -3.576 -10.646 -21.083  1.00  0.00    +0.119 HD
ENDBRANCH  14  22
ENDBRANCH   8   9
ENDBRANCH   7   8
ENDBRANCH   1   7
BRANCH   2  25
ATOM     25  O   UNL     1      -0.782 -15.996 -16.498  1.00  0.00    -0.342 OA
BRANCH  25  26
ATOM     26  C   UNL     1       0.388 -15.706 -17.273  1.00  0.00    +0.270 C 
ATOM     27  C   UNL     1       1.626 -16.279 -16.515  1.00  0.00    +0.139 C 
ATOM     28  O   UNL     1       0.523 -14.299 -17.464  1.00  0.00    -0.342 OA
ATOM     29  C   UNL     1       2.935 -15.944 -17.284  1.00  0.00    +0.167 C 
ATOM     30  C   UNL     1       1.717 -13.887 -18.143  1.00  0.00    +0.178 C 
ATOM     31  C   UNL     1       2.671 -15.046 -18.499  1.00  0.00    +0.176 C 
BRANCH  27  32
ATOM     32  N   UNL     1       1.645 -15.851 -15.091  1.00  0.00    -0.321 NA
ATOM     33  H   UNL     1       1.294 -16.637 -14.533  1.00  0.00    +0.119 HD
ATOM     34  H   UNL     1       2.628 -15.776 -14.820  1.00  0.00    +0.119 HD
ENDBRANCH  27  32
BRANCH  29  35
ATOM     35  O   UNL     1       3.931 -15.298 -16.465  1.00  0.00    -0.388 OA
ATOM     36  H   UNL     1       4.007 -15.870 -15.672  1.00  0.00    +0.211 HD
ENDBRANCH  29  35
BRANCH  30  37
ATOM     37  C   UNL     1       2.358 -12.732 -17.346  1.00  0.00    +0.191 C 
BRANCH  37  38
ATOM     38  O   UNL     1       2.320 -12.912 -15.932  1.00  0.00    -0.394 OA
ATOM     39  H   UNL     1       1.469 -12.532 -15.613  1.00  0.00    +0.210 HD
ENDBRANCH  37  38
ENDBRANCH  30  37
BRANCH  31  40
ATOM     40  O   UNL     1       3.919 -14.593 -19.035  1.00  0.00    -0.388 OA
ATOM     41  H   UNL     1       4.634 -14.996 -18.507  1.00  0.00    +0.211 HD
ENDBRANCH  31  40
ENDBRANCH  25  26
ENDBRANCH   2  25
BRANCH   3  42
ATOM     42  O   UNL     1      -1.976 -18.364 -15.507  1.00  0.00    -0.343 OA
BRANCH  42  43
ATOM     43  C   UNL     1      -1.510 -17.872 -14.245  1.00  0.00    +0.270 C 
ATOM     44  C   UNL     1      -0.530 -18.932 -13.675  1.00  0.00    +0.139 C 
ATOM     45  O   UNL     1      -2.644 -17.672 -13.395  1.00  0.00    -0.342 OA
ATOM     46  C   UNL     1      -0.176 -18.623 -12.213  1.00  0.00    +0.167 C 
ATOM     47  C   UNL     1      -2.333 -17.326 -12.041  1.00  0.00    +0.178 C 
ATOM     48  C   UNL     1      -1.449 -18.406 -11.392  1.00  0.00    +0.176 C 
BRANCH  44  49
ATOM     49  N   UNL     1       0.710 -19.025 -14.485  1.00  0.00    -0.321 NA
ATOM     50  H   UNL     1       1.480 -18.649 -13.931  1.00  0.00    +0.119 HD
ATOM     51  H   UNL     1       0.591 -18.399 -15.288  1.00  0.00    +0.119 HD
ENDBRANCH  44  49
BRANCH  46  52
ATOM     52  O   UNL     1       0.565 -19.721 -11.651  1.00  0.00    -0.388 OA
ATOM     53  H   UNL     1       0.925 -20.205 -12.422  1.00  0.00    +0.211 HD
ENDBRANCH  46  52
BRANCH  47  54
ATOM     54  C   UNL     1      -1.786 -15.890 -11.932  1.00  0.00    +0.191 C 
BRANCH  54  55
ATOM     55  O   UNL     1      -2.704 -14.960 -12.497  1.00  0.00    -0.394 OA
ATOM     56  H   UNL     1      -2.811 -15.199 -13.438  1.00  0.00    +0.210 HD
ENDBRANCH  54  55
ENDBRANCH  47  54
BRANCH  48  57
ATOM     57  O   UNL     1      -1.084 -18.131 -10.035  1.00  0.00    -0.388 OA
ATOM     58  H   UNL     1      -1.589 -18.748  -9.459  1.00  0.00    +0.211 HD
ENDBRANCH  48  57
ENDBRANCH  42  43
ENDBRANCH   3  42
BRANCH   5  59
ATOM     59  O   UNL     1      -5.661 -17.562 -18.643  1.00  0.00    -0.320 OA
BRANCH  59  60
ATOM     60  C   UNL     1      -6.796 -16.717 -18.839  1.00  0.00    +0.273 C 
ATOM     61  C   UNL     1      -6.897 -15.626 -17.733  1.00  0.00    +0.140 C 
ATOM     62  O   UNL     1      -6.597 -16.112 -20.126  1.00  0.00    -0.342 OA
ATOM     63  C   UNL     1      -7.999 -14.614 -18.110  1.00  0.00    +0.174 C 
ATOM     64  C   UNL     1      -7.670 -15.236 -20.508  1.00  0.00    +0.178 C 
ATOM     65  C   UNL     1      -7.786 -14.070 -19.527  1.00  0.00    +0.176 C 
BRANCH  61  66
ATOM     66  N   UNL     1      -7.184 -16.172 -16.391  1.00  0.00    -0.321 NA
ATOM     67  H   UNL     1      -6.622 -17.024 -16.256  1.00  0.00    +0.119 HD
ATOM     68  H   UNL     1      -8.165 -16.490 -16.371  1.00  0.00    +0.119 HD
ENDBRANCH  61  66
BRANCH  63  69
ATOM     69  O   UNL     1      -7.971 -13.483 -17.216  1.00  0.00    -0.343 OA
BRANCH  69  70
ATOM     70  C   UNL     1      -6.671 -12.895 -17.119  1.00  0.00    +0.270 C 
ATOM     71  C   UNL     1      -6.818 -11.378 -16.795  1.00  0.00    +0.139 C 
ATOM     72  O   UNL     1      -5.917 -13.626 -16.140  1.00  0.00    -0.342 OA
ATOM     73  C   UNL     1      -5.572 -10.945 -16.015  1.00  0.00    +0.167 C 
ATOM     74  C   UNL     1      -6.096 -13.128 -14.805  1.00  0.00    +0.178 C 
ATOM     75  C   UNL     1      -5.492 -11.707 -14.681  1.00  0.00    +0.176 C 
BRANCH  71  76
ATOM     76  N   UNL     1      -7.034 -10.534 -18.000  1.00  0.00    -0.321 NA
ATOM     77  H   UNL     1      -7.560 -11.119 -18.660  1.00  0.00    +0.119 HD
ATOM     78  H   UNL     1      -7.705  -9.791 -17.751  1.00  0.00    +0.119 HD
ENDBRANCH  71  76
BRANCH  73  79
ATOM     79  O   UNL     1      -5.600  -9.531 -15.754  1.00  0.00    -0.388 OA
ATOM     80  H   UNL     1      -6.527  -9.338 -15.513  1.00  0.00    +0.211 HD
ENDBRANCH  73  79
BRANCH  74  81
ATOM     81  C   UNL     1      -5.507 -14.152 -13.826  1.00  0.00    +0.191 C 
BRANCH  81  82
ATOM     82  O   UNL     1      -4.854 -15.214 -14.526  1.00  0.00    -0.394 OA
ATOM     83  H   UNL     1      -5.271 -15.270 -15.405  1.00  0.00    +0.210 HD
ENDBRANCH  81  82
ENDBRANCH  74  81
BRANCH  75  84
ATOM     84  O   UNL     1      -4.122 -11.659 -14.261  1.00  0.00    -0.388 OA
ATOM     85  H   UNL     1      -4.109 -11.856 -13.297  1.00  0.00    +0.211 HD
ENDBRANCH  75  84
ENDBRANCH  69  70
ENDBRANCH  63  69
BRANCH  64  86
ATOM     86  C   UNL     1      -7.371 -14.748 -21.928  1.00  0.00    +0.191 C 
BRANCH  86  87
ATOM     87  O   UNL     1      -6.003 -15.027 -22.247  1.00  0.00    -0.394 OA
ATOM     88  H   UNL     1      -5.596 -14.148 -22.380  1.00  0.00    +0.210 HD
ENDBRANCH  86  87
ENDBRANCH  64  86
BRANCH  65  89
ATOM     89  O   UNL     1      -8.884 -13.221 -19.880  1.00  0.00    -0.388 OA
ATOM     90  H   UNL     1      -8.940 -13.253 -20.857  1.00  0.00    +0.211 HD
ENDBRANCH  65  89
ENDBRANCH  59  60
ENDBRANCH   5  59
BRANCH   4  91
ATOM     91  N   UNL     1      -3.454 -19.204 -17.854  1.00  0.00    -0.321 NA
ATOM     92  H   UNL     1      -3.571 -20.044 -17.281  1.00  0.00    +0.119 HD
ATOM     93  H   UNL     1      -2.452 -19.087 -18.024  1.00  0.00    +0.119 HD
ENDBRANCH   4  91
TORSDOF 36
ENDMDL
MODEL 4
REMARK VINA RESULT:    -5.938     28.490     32.614
REMARK INTER + INTRA:         -21.945
REMARK INTER:                 -16.107
REMARK INTRA:                  -5.838
REMARK UNBOUND:                -6.982
REMARK SMILES N[C@@H]1[C@@H](O[C@@H]2[C@H](N)[C@H](O[C@@H]3O[C@H](CO)[C@@H](O)[C@H](O[C@@H]4O[C@@H](CO)[C@@H](O)[C@H](O)[C@H]4N)[C@H]3N)O[C@@H](CO[C@H]3O[C@@H](CO)[C@@H](O)[C@H](O)[C@H]3N)[C@H]2O[C@H]2O[C@@H](CO)[C@@H](O)[C@@H](O)[C@H]2N)O[C@H](CO)[C@H](O)[C@H]1O
REMARK SMILES IDX 33 1 47 2 5 3 6 4 8 5 32 6 34 7 35 8 36 9 38 10 41 11 37 12
REMARK SMILES IDX 43 13 45 14 39 15 40 16 42 18 44 20 46 22 48 25 49 26 58 27
REMARK SMILES IDX 50 28 56 29 51 30 54 31 59 32 57 35 52 37 53 38 55 40 4 42
REMARK SMILES IDX 3 43 2 44 60 45 66 46 61 47 64 48 1 49 67 52 62 54 63 55
REMARK SMILES IDX 65 57 9 59 10 60 30 61 11 62 17 63 12 64 15 65 31 66 18 69
REMARK SMILES IDX 19 70 28 71 20 72 26 73 21 74 24 75 29 76 27 79 22 81 23 82
REMARK SMILES IDX 25 84 13 86 14 87 16 89 7 91
REMARK H PARENT 40 17 42 19 44 21 46 23 46 24 59 33 59 34 57 36 53 39 55 41
REMARK H PARENT 1 50 1 51 67 53 63 56 65 58 31 67 31 68 29 77 29 78 27 80
REMARK H PARENT 23 83 25 85 14 88 16 90 7 92 7 93
ROOT
ATOM      1  C   UNL     1       2.963 -11.303 -18.994  1.00  0.00    +0.179 C 
ATOM      2  C   UNL     1       3.413 -12.654 -19.587  1.00  0.00    +0.183 C 
ATOM      3  C   UNL     1       4.012 -12.475 -20.996  1.00  0.00    +0.175 C 
ATOM      4  C   UNL     1       5.112 -11.391 -20.967  1.00  0.00    +0.140 C 
ATOM      5  C   UNL     1       4.514 -10.084 -20.373  1.00  0.00    +0.273 C 
ATOM      6  O   UNL     1       4.011 -10.319 -19.064  1.00  0.00    -0.342 OA
ENDROOT
BRANCH   1   7
ATOM      7  C   UNL     1       1.638 -10.784 -19.605  1.00  0.00    +0.198 C 
BRANCH   7   8
ATOM      8  O   UNL     1       0.615 -10.690 -18.608  1.00  0.00    -0.348 OA
BRANCH   8   9
ATOM      9  C   UNL     1      -0.701 -10.897 -19.144  1.00  0.00    +0.270 C 
ATOM     10  C   UNL     1      -2.873 -11.824 -18.629  1.00  0.00    +0.178 C 
ATOM     11  C   UNL     1      -3.228 -11.165 -19.972  1.00  0.00    +0.176 C 
ATOM     12  O   UNL     1      -1.511 -11.625 -18.225  1.00  0.00    -0.342 OA
ATOM     13  C   UNL     1      -2.757  -9.704 -20.044  1.00  0.00    +0.167 C 
ATOM     14  C   UNL     1      -1.335  -9.510 -19.470  1.00  0.00    +0.139 C 
BRANCH  10  15
ATOM     15  C   UNL     1      -3.782 -11.420 -17.457  1.00  0.00    +0.191 C 
BRANCH  15  16
ATOM     16  O   UNL     1      -3.118 -10.543 -16.551  1.00  0.00    -0.394 OA
ATOM     17  H   UNL     1      -2.573 -11.099 -15.965  1.00  0.00    +0.210 HD
ENDBRANCH  15  16
ENDBRANCH  10  15
BRANCH  11  18
ATOM     18  O   UNL     1      -4.623 -11.245 -20.289  1.00  0.00    -0.388 OA
ATOM     19  H   UNL     1      -4.902 -12.168 -20.140  1.00  0.00    +0.211 HD
ENDBRANCH  11  18
BRANCH  13  20
ATOM     20  O   UNL     1      -2.784  -9.302 -21.428  1.00  0.00    -0.388 OA
ATOM     21  H   UNL     1      -1.866  -9.038 -21.631  1.00  0.00    +0.211 HD
ENDBRANCH  13  20
BRANCH  14  22
ATOM     22  N   UNL     1      -1.385  -8.641 -18.256  1.00  0.00    -0.321 NA
ATOM     23  H   UNL     1      -1.556  -7.685 -18.608  1.00  0.00    +0.119 HD
ATOM     24  H   UNL     1      -2.273  -8.866 -17.773  1.00  0.00    +0.119 HD
ENDBRANCH  14  22
ENDBRANCH   8   9
ENDBRANCH   7   8
ENDBRANCH   1   7
BRANCH   2  25
ATOM     25  O   UNL     1       2.290 -13.550 -19.672  1.00  0.00    -0.342 OA
BRANCH  25  26
ATOM     26  C   UNL     1       2.416 -14.668 -18.784  1.00  0.00    +0.270 C 
ATOM     27  C   UNL     1       1.083 -14.805 -17.984  1.00  0.00    +0.139 C 
ATOM     28  O   UNL     1       3.517 -14.479 -17.898  1.00  0.00    -0.342 OA
ATOM     29  C   UNL     1       1.183 -15.972 -16.962  1.00  0.00    +0.167 C 
ATOM     30  C   UNL     1       3.676 -15.493 -16.896  1.00  0.00    +0.178 C 
ATOM     31  C   UNL     1       2.588 -16.586 -16.929  1.00  0.00    +0.176 C 
BRANCH  27  32
ATOM     32  N   UNL     1       0.672 -13.513 -17.376  1.00  0.00    -0.321 NA
ATOM     33  H   UNL     1       0.369 -13.711 -16.416  1.00  0.00    +0.119 HD
ATOM     34  H   UNL     1       1.525 -12.961 -17.256  1.00  0.00    +0.119 HD
ENDBRANCH  27  32
BRANCH  29  35
ATOM     35  O   UNL     1       0.837 -15.585 -15.616  1.00  0.00    -0.388 OA
ATOM     36  H   UNL     1       1.561 -15.947 -15.062  1.00  0.00    +0.211 HD
ENDBRANCH  29  35
BRANCH  30  37
ATOM     37  C   UNL     1       3.874 -14.804 -15.530  1.00  0.00    +0.191 C 
BRANCH  37  38
ATOM     38  O   UNL     1       3.080 -13.633 -15.351  1.00  0.00    -0.394 OA
ATOM     39  H   UNL     1       2.382 -13.852 -14.693  1.00  0.00    +0.210 HD
ENDBRANCH  37  38
ENDBRANCH  30  37
BRANCH  31  40
ATOM     40  O   UNL     1       2.682 -17.496 -15.828  1.00  0.00    -0.388 OA
ATOM     41  H   UNL     1       3.604 -17.480 -15.506  1.00  0.00    +0.211 HD
ENDBRANCH  31  40
ENDBRANCH  25  26
ENDBRANCH   2  25
BRANCH   3  42
ATOM     42  O   UNL     1       4.488 -13.764 -21.443  1.00  0.00    -0.343 OA
BRANCH  42  43
ATOM     43  C   UNL     1       4.010 -14.156 -22.735  1.00  0.00    +0.270 C 
ATOM     44  C   UNL     1       5.124 -13.808 -23.759  1.00  0.00    +0.139 C 
ATOM     45  O   UNL     1       2.794 -13.449 -22.997  1.00  0.00    -0.342 OA
ATOM     46  C   UNL     1       4.609 -13.948 -25.199  1.00  0.00    +0.167 C 
ATOM     47  C   UNL     1       2.269 -13.617 -24.318  1.00  0.00    +0.178 C 
ATOM     48  C   UNL     1       3.299 -13.177 -25.374  1.00  0.00    +0.176 C 
BRANCH  44  49
ATOM     49  N   UNL     1       6.329 -14.652 -23.569  1.00  0.00    -0.321 NA
ATOM     50  H   UNL     1       7.062 -14.071 -23.162  1.00  0.00    +0.119 HD
ATOM     51  H   UNL     1       6.652 -14.927 -24.502  1.00  0.00    +0.119 HD
ENDBRANCH  44  49
BRANCH  46  52
ATOM     52  O   UNL     1       5.588 -13.429 -26.117  1.00  0.00    -0.388 OA
ATOM     53  H   UNL     1       6.361 -13.200 -25.561  1.00  0.00    +0.211 HD
ENDBRANCH  46  52
BRANCH  47  54
ATOM     54  C   UNL     1       1.690 -15.029 -24.526  1.00  0.00    +0.191 C 
BRANCH  54  55
ATOM     55  O   UNL     1       0.666 -15.010 -25.515  1.00  0.00    -0.394 OA
ATOM     56  H   UNL     1       1.039 -15.417 -26.321  1.00  0.00    +0.210 HD
ENDBRANCH  54  55
ENDBRANCH  47  54
BRANCH  48  57
ATOM     57  O   UNL     1       2.854 -13.322 -26.728  1.00  0.00    -0.388 OA
ATOM     58  H   UNL     1       2.007 -13.823 -26.712  1.00  0.00    +0.211 HD
ENDBRANCH  48  57
ENDBRANCH  42  43
ENDBRANCH   3  42
BRANCH   5  59
ATOM     59  O   UNL     1       5.555  -9.105 -20.339  1.00  0.00    -0.320 OA
BRANCH  59  60
ATOM     60  C   UNL     1       5.097  -7.762 -20.509  1.00  0.00    +0.273 C 
ATOM     61  C   UNL     1       5.749  -6.798 -19.475  1.00  0.00    +0.140 C 
ATOM     62  O   UNL     1       5.480  -7.402 -21.845  1.00  0.00    -0.342 OA
ATOM     63  C   UNL     1       5.396  -5.341 -19.841  1.00  0.00    +0.174 C 
ATOM     64  C   UNL     1       5.073  -6.073 -22.208  1.00  0.00    +0.178 C 
ATOM     65  C   UNL     1       5.744  -5.040 -21.302  1.00  0.00    +0.176 C 
BRANCH  61  66
ATOM     66  N   UNL     1       5.333  -7.060 -18.083  1.00  0.00    -0.321 NA
ATOM     67  H   UNL     1       4.323  -7.251 -18.072  1.00  0.00    +0.119 HD
ATOM     68  H   UNL     1       5.450  -6.191 -17.539  1.00  0.00    +0.119 HD
ENDBRANCH  61  66
BRANCH  63  69
ATOM     69  O   UNL     1       6.155  -4.421 -19.030  1.00  0.00    -0.343 OA
BRANCH  69  70
ATOM     70  C   UNL     1       5.323  -3.492 -18.331  1.00  0.00    +0.270 C 
ATOM     71  C   UNL     1       5.827  -3.358 -16.863  1.00  0.00    +0.139 C 
ATOM     72  O   UNL     1       5.319  -2.254 -19.058  1.00  0.00    -0.342 OA
ATOM     73  C   UNL     1       5.466  -1.952 -16.372  1.00  0.00    +0.167 C 
ATOM     74  C   UNL     1       6.390  -1.376 -18.678  1.00  0.00    +0.178 C 
ATOM     75  C   UNL     1       6.193  -0.893 -17.220  1.00  0.00    +0.176 C 
BRANCH  71  76
ATOM     76  N   UNL     1       5.297  -4.410 -15.956  1.00  0.00    -0.321 NA
ATOM     77  H   UNL     1       5.815  -5.265 -16.187  1.00  0.00    +0.119 HD
ATOM     78  H   UNL     1       5.609  -4.191 -14.997  1.00  0.00    +0.119 HD
ENDBRANCH  71  76
BRANCH  73  79
ATOM     79  O   UNL     1       5.827  -1.785 -14.991  1.00  0.00    -0.388 OA
ATOM     80  H   UNL     1       5.710  -0.831 -14.814  1.00  0.00    +0.211 HD
ENDBRANCH  73  79
BRANCH  74  81
ATOM     81  C   UNL     1       6.474  -0.244 -19.711  1.00  0.00    +0.191 C 
BRANCH  81  82
ATOM     82  O   UNL     1       5.953  -0.665 -20.976  1.00  0.00    -0.394 OA
ATOM     83  H   UNL     1       6.485  -0.222 -21.661  1.00  0.00    +0.210 HD
ENDBRANCH  81  82
ENDBRANCH  74  81
BRANCH  75  84
ATOM     84  O   UNL     1       5.456   0.328 -17.074  1.00  0.00    -0.388 OA
ATOM     85  H   UNL     1       4.625   0.108 -16.596  1.00  0.00    +0.211 HD
ENDBRANCH  75  84
ENDBRANCH  69  70
ENDBRANCH  63  69
BRANCH  64  86
ATOM     86  C   UNL     1       5.457  -5.867 -23.676  1.00  0.00    +0.191 C 
BRANCH  86  87
ATOM     87  O   UNL     1       5.803  -7.129 -24.257  1.00  0.00    -0.394 OA
ATOM     88  H   UNL     1       6.664  -6.973 -24.692  1.00  0.00    +0.210 HD
ENDBRANCH  86  87
ENDBRANCH  64  86
BRANCH  65  89
ATOM     89  O   UNL     1       5.303  -3.717 -21.633  1.00  0.00    -0.388 OA
ATOM     90  H   UNL     1       5.045  -3.753 -22.576  1.00  0.00    +0.211 HD
ENDBRANCH  65  89
ENDBRANCH  59  60
ENDBRANCH   5  59
BRANCH   4  91
ATOM     91  N   UNL     1       6.305 -11.865 -20.222  1.00  0.00    -0.321 NA
ATOM     92  H   UNL     1       6.258 -11.474 -19.278  1.00  0.00    +0.119 HD
ATOM     93  H   UNL     1       7.132 -11.470 -20.677  1.00  0.00    +0.119 HD
ENDBRANCH   4  91
TORSDOF 36
ENDMDL
MODEL 5
REMARK VINA RESULT:    -5.923      2.851      5.972
REMARK INTER + INTRA:         -21.909
REMARK INTER:                 -15.095
REMARK INTRA:                  -6.814
REMARK UNBOUND:                -6.982
REMARK SMILES N[C@@H]1[C@@H](O[C@@H]2[C@H](N)[C@H](O[C@@H]3O[C@H](CO)[C@@H](O)[C@H](O[C@@H]4O[C@@H](CO)[C@@H](O)[C@H](O)[C@H]4N)[C@H]3N)O[C@@H](CO[C@H]3O[C@@H](CO)[C@@H](O)[C@H](O)[C@H]3N)[C@H]2O[C@H]2O[C@@H](CO)[C@@H](O)[C@@H](O)[C@H]2N)O[C@H](CO)[C@H](O)[C@H]1O
REMARK SMILES IDX 33 1 47 2 5 3 6 4 8 5 32 6 34 7 35 8 36 9 38 10 41 11 37 12
REMARK SMILES IDX 43 13 45 14 39 15 40 16 42 18 44 20 46 22 48 25 49 26 58 27
REMARK SMILES IDX 50 28 56 29 51 30 54 31 59 32 57 35 52 37 53 38 55 40 4 42
REMARK SMILES IDX 3 43 2 44 60 45 66 46 61 47 64 48 1 49 67 52 62 54 63 55
REMARK SMILES IDX 65 57 9 59 10 60 30 61 11 62 17 63 12 64 15 65 31 66 18 69
REMARK SMILES IDX 19 70 28 71 20 72 26 73 21 74 24 75 29 76 27 79 22 81 23 82
REMARK SMILES IDX 25 84 13 86 14 87 16 89 7 91
REMARK H PARENT 40 17 42 19 44 21 46 23 46 24 59 33 59 34 57 36 53 39 55 41
REMARK H PARENT 1 50 1 51 67 53 63 56 65 58 31 67 31 68 29 77 29 78 27 80
REMARK H PARENT 23 83 25 85 14 88 16 90 7 92 7 93
ROOT
ATOM      1  C   UNL     1      -8.619  -8.193  10.198  1.00  0.00    +0.179 C 
ATOM      2  C   UNL     1      -7.619  -7.954   9.048  1.00  0.00    +0.183 C 
ATOM      3  C   UNL     1      -6.472  -8.984   9.081  1.00  0.00    +0.175 C 
ATOM      4  C   UNL     1      -7.050 -10.415   9.139  1.00  0.00    +0.140 C 
ATOM      5  C   UNL     1      -8.016 -10.518  10.354  1.00  0.00    +0.273 C 
ATOM      6  O   UNL     1      -9.062  -9.562  10.238  1.00  0.00    -0.342 OA
ENDROOT
BRANCH   1   7
ATOM      7  C   UNL     1      -8.089  -7.713  11.572  1.00  0.00    +0.198 C 
BRANCH   7   8
ATOM      8  O   UNL     1      -8.948  -6.717  12.135  1.00  0.00    -0.348 OA
BRANCH   8   9
ATOM      9  C   UNL     1      -8.518  -6.286  13.435  1.00  0.00    +0.270 C 
ATOM     10  C   UNL     1      -6.638  -5.360  14.640  1.00  0.00    +0.178 C 
ATOM     11  C   UNL     1      -7.681  -5.286  15.768  1.00  0.00    +0.176 C 
ATOM     12  O   UNL     1      -7.152  -5.881  13.406  1.00  0.00    -0.342 OA
ATOM     13  C   UNL     1      -8.991  -4.630  15.304  1.00  0.00    +0.167 C 
ATOM     14  C   UNL     1      -9.437  -5.118  13.907  1.00  0.00    +0.139 C 
BRANCH  10  15
ATOM     15  C   UNL     1      -5.926  -4.032  14.337  1.00  0.00    +0.191 C 
BRANCH  15  16
ATOM     16  O   UNL     1      -6.312  -3.502  13.072  1.00  0.00    -0.394 OA
ATOM     17  H   UNL     1      -6.709  -2.628  13.238  1.00  0.00    +0.210 HD
ENDBRANCH  15  16
ENDBRANCH  10  15
BRANCH  11  18
ATOM     18  O   UNL     1      -7.194  -4.628  16.944  1.00  0.00    -0.388 OA
ATOM     19  H   UNL     1      -6.275  -4.356  16.765  1.00  0.00    +0.211 HD
ENDBRANCH  11  18
BRANCH  13  20
ATOM     20  O   UNL     1     -10.007  -4.944  16.279  1.00  0.00    -0.388 OA
ATOM     21  H   UNL     1     -10.682  -4.247  16.170  1.00  0.00    +0.211 HD
ENDBRANCH  13  20
BRANCH  14  22
ATOM     22  N   UNL     1      -9.411  -3.984  12.934  1.00  0.00    -0.321 NA
ATOM     23  H   UNL     1      -8.440  -3.630  12.950  1.00  0.00    +0.119 HD
ATOM     24  H   UNL     1      -9.482  -4.407  11.992  1.00  0.00    +0.119 HD
ENDBRANCH  14  22
ENDBRANCH   8   9
ENDBRANCH   7   8
ENDBRANCH   1   7
BRANCH   2  25
ATOM     25  O   UNL     1      -7.058  -6.633   9.153  1.00  0.00    -0.342 OA
BRANCH  25  26
ATOM     26  C   UNL     1      -7.866  -5.644   8.503  1.00  0.00    +0.270 C 
ATOM     27  C   UNL     1      -7.566  -4.262   9.163  1.00  0.00    +0.139 C 
ATOM     28  O   UNL     1      -9.248  -5.971   8.626  1.00  0.00    -0.342 OA
ATOM     29  C   UNL     1      -8.459  -3.156   8.533  1.00  0.00    +0.167 C 
ATOM     30  C   UNL     1     -10.156  -4.994   8.096  1.00  0.00    +0.178 C 
ATOM     31  C   UNL     1      -9.467  -3.734   7.532  1.00  0.00    +0.176 C 
BRANCH  27  32
ATOM     32  N   UNL     1      -7.658  -4.330  10.645  1.00  0.00    -0.321 NA
ATOM     33  H   UNL     1      -6.848  -4.865  10.976  1.00  0.00    +0.119 HD
ATOM     34  H   UNL     1      -7.489  -3.384  10.994  1.00  0.00    +0.119 HD
ENDBRANCH  27  32
BRANCH  29  35
ATOM     35  O   UNL     1      -9.194  -2.389   9.509  1.00  0.00    -0.388 OA
ATOM     36  H   UNL     1      -9.893  -2.999   9.826  1.00  0.00    +0.211 HD
ENDBRANCH  29  35
BRANCH  30  37
ATOM     37  C   UNL     1     -11.253  -4.727   9.147  1.00  0.00    +0.191 C 
BRANCH  37  38
ATOM     38  O   UNL     1     -10.808  -4.855  10.496  1.00  0.00    -0.394 OA
ATOM     39  H   UNL     1     -11.051  -5.760  10.798  1.00  0.00    +0.210 HD
ENDBRANCH  37  38
ENDBRANCH  30  37
BRANCH  31  40
ATOM     40  O   UNL     1     -10.397  -2.716   7.153  1.00  0.00    -0.388 OA
ATOM     41  H   UNL     1     -11.295  -3.041   7.355  1.00  0.00    +0.211 HD
ENDBRANCH  31  40
ENDBRANCH  25  26
ENDBRANCH   2  25
BRANCH   3  42
ATOM     42  O   UNL     1      -5.633  -8.751   7.929  1.00  0.00    -0.343 OA
BRANCH  42  43
ATOM     43  C   UNL     1      -4.238  -8.627   8.228  1.00  0.00    +0.270 C 
ATOM     44  C   UNL     1      -3.951  -9.531   9.456  1.00  0.00    +0.139 C 
ATOM     45  O   UNL     1      -3.956  -7.249   8.492  1.00  0.00    -0.342 OA
ATOM     46  C   UNL     1      -2.545  -9.270  10.015  1.00  0.00    +0.167 C 
ATOM     47  C   UNL     1      -2.629  -6.981   8.958  1.00  0.00    +0.178 C 
ATOM     48  C   UNL     1      -2.333  -7.772  10.245  1.00  0.00    +0.176 C 
BRANCH  44  49
ATOM     49  N   UNL     1      -4.105 -10.969   9.127  1.00  0.00    -0.321 NA
ATOM     50  H   UNL     1      -3.270 -11.460   9.450  1.00  0.00    +0.119 HD
ATOM     51  H   UNL     1      -4.115 -11.044   8.105  1.00  0.00    +0.119 HD
ENDBRANCH  44  49
BRANCH  46  52
ATOM     52  O   UNL     1      -2.382  -9.966  11.264  1.00  0.00    -0.388 OA
ATOM     53  H   UNL     1      -1.783  -9.401  11.792  1.00  0.00    +0.211 HD
ENDBRANCH  46  52
BRANCH  47  54
ATOM     54  C   UNL     1      -1.587  -7.153   7.838  1.00  0.00    +0.191 C 
BRANCH  54  55
ATOM     55  O   UNL     1      -0.652  -8.173   8.175  1.00  0.00    -0.394 OA
ATOM     56  H   UNL     1      -1.165  -8.988   8.340  1.00  0.00    +0.210 HD
ENDBRANCH  54  55
ENDBRANCH  47  54
BRANCH  48  57
ATOM     57  O   UNL     1      -1.018  -7.566  10.774  1.00  0.00    -0.388 OA
ATOM     58  H   UNL     1      -1.004  -6.680  11.202  1.00  0.00    +0.211 HD
ENDBRANCH  48  57
ENDBRANCH  42  43
ENDBRANCH   3  42
BRANCH   5  59
ATOM     59  O   UNL     1      -8.552 -11.842  10.373  1.00  0.00    -0.320 OA
BRANCH  59  60
ATOM     60  C   UNL     1      -8.093 -12.641  11.465  1.00  0.00    +0.273 C 
ATOM     61  C   UNL     1      -6.739 -13.336  11.138  1.00  0.00    +0.140 C 
ATOM     62  O   UNL     1      -7.938 -11.727  12.561  1.00  0.00    -0.342 OA
ATOM     63  C   UNL     1      -6.182 -14.000  12.415  1.00  0.00    +0.174 C 
ATOM     64  C   UNL     1      -7.501 -12.367  13.771  1.00  0.00    +0.178 C 
ATOM     65  C   UNL     1      -6.124 -13.001  13.575  1.00  0.00    +0.176 C 
BRANCH  61  66
ATOM     66  N   UNL     1      -6.841 -14.352  10.072  1.00  0.00    -0.321 NA
ATOM     67  H   UNL     1      -5.931 -14.423   9.597  1.00  0.00    +0.119 HD
ATOM     68  H   UNL     1      -7.494 -14.007   9.353  1.00  0.00    +0.119 HD
ENDBRANCH  61  66
BRANCH  63  69
ATOM     69  O   UNL     1      -4.836 -14.466  12.193  1.00  0.00    -0.343 OA
BRANCH  69  70
ATOM     70  C   UNL     1      -3.935 -13.403  11.870  1.00  0.00    +0.270 C 
ATOM     71  C   UNL     1      -2.639 -13.554  12.721  1.00  0.00    +0.139 C 
ATOM     72  O   UNL     1      -3.704 -13.422  10.453  1.00  0.00    -0.342 OA
ATOM     73  C   UNL     1      -1.483 -12.942  11.924  1.00  0.00    +0.167 C 
ATOM     74  C   UNL     1      -2.617 -14.281  10.073  1.00  0.00    +0.178 C 
ATOM     75  C   UNL     1      -1.278 -13.716  10.610  1.00  0.00    +0.176 C 
BRANCH  71  76
ATOM     76  N   UNL     1      -2.749 -12.957  14.078  1.00  0.00    -0.321 NA
ATOM     77  H   UNL     1      -2.025 -13.415  14.644  1.00  0.00    +0.119 HD
ATOM     78  H   UNL     1      -2.428 -11.978  14.022  1.00  0.00    +0.119 HD
ENDBRANCH  71  76
BRANCH  73  79
ATOM     79  O   UNL     1      -0.265 -12.970  12.687  1.00  0.00    -0.388 OA
ATOM     80  H   UNL     1      -0.232 -12.105  13.140  1.00  0.00    +0.211 HD
ENDBRANCH  73  79
BRANCH  74  81
ATOM     81  C   UNL     1      -2.658 -14.463   8.550  1.00  0.00    +0.191 C 
BRANCH  81  82
ATOM     82  O   UNL     1      -2.927 -13.222   7.891  1.00  0.00    -0.394 OA
ATOM     83  H   UNL     1      -3.796 -12.918   8.211  1.00  0.00    +0.210 HD
ENDBRANCH  81  82
ENDBRANCH  74  81
BRANCH  75  84
ATOM     84  O   UNL     1      -0.584 -12.835   9.717  1.00  0.00    -0.388 OA
ATOM     85  H   UNL     1      -0.204 -12.110  10.263  1.00  0.00    +0.211 HD
ENDBRANCH  75  84
ENDBRANCH  69  70
ENDBRANCH  63  69
BRANCH  64  86
ATOM     86  C   UNL     1      -7.477 -11.297  14.865  1.00  0.00    +0.191 C 
BRANCH  86  87
ATOM     87  O   UNL     1      -6.174 -10.705  14.921  1.00  0.00    -0.394 OA
ATOM     88  H   UNL     1      -6.132 -10.280  15.800  1.00  0.00    +0.210 HD
ENDBRANCH  86  87
ENDBRANCH  64  86
BRANCH  65  89
ATOM     89  O   UNL     1      -5.707 -13.679  14.766  1.00  0.00    -0.388 OA
ATOM     90  H   UNL     1      -4.747 -13.505  14.846  1.00  0.00    +0.211 HD
ENDBRANCH  65  89
ENDBRANCH  59  60
ENDBRANCH   5  59
BRANCH   4  91
ATOM     91  N   UNL     1      -7.704 -10.776   7.856  1.00  0.00    -0.321 NA
ATOM     92  H   UNL     1      -8.687 -10.500   7.919  1.00  0.00    +0.119 HD
ATOM     93  H   UNL     1      -7.676 -11.795   7.769  1.00  0.00    +0.119 HD
ENDBRANCH   4  91
TORSDOF 36
ENDMDL
MODEL 6
REMARK VINA RESULT:    -5.914      3.528      7.628
REMARK INTER + INTRA:         -21.886
REMARK INTER:                 -16.237
REMARK INTRA:                  -5.650
REMARK UNBOUND:                -6.982
REMARK SMILES N[C@@H]1[C@@H](O[C@@H]2[C@H](N)[C@H](O[C@@H]3O[C@H](CO)[C@@H](O)[C@H](O[C@@H]4O[C@@H](CO)[C@@H](O)[C@H](O)[C@H]4N)[C@H]3N)O[C@@H](CO[C@H]3O[C@@H](CO)[C@@H](O)[C@H](O)[C@H]3N)[C@H]2O[C@H]2O[C@@H](CO)[C@@H](O)[C@@H](O)[C@H]2N)O[C@H](CO)[C@H](O)[C@H]1O
REMARK SMILES IDX 33 1 47 2 5 3 6 4 8 5 32 6 34 7 35 8 36 9 38 10 41 11 37 12
REMARK SMILES IDX 43 13 45 14 39 15 40 16 42 18 44 20 46 22 48 25 49 26 58 27
REMARK SMILES IDX 50 28 56 29 51 30 54 31 59 32 57 35 52 37 53 38 55 40 4 42
REMARK SMILES IDX 3 43 2 44 60 45 66 46 61 47 64 48 1 49 67 52 62 54 63 55
REMARK SMILES IDX 65 57 9 59 10 60 30 61 11 62 17 63 12 64 15 65 31 66 18 69
REMARK SMILES IDX 19 70 28 71 20 72 26 73 21 74 24 75 29 76 27 79 22 81 23 82
REMARK SMILES IDX 25 84 13 86 14 87 16 89 7 91
REMARK H PARENT 40 17 42 19 44 21 46 23 46 24 59 33 59 34 57 36 53 39 55 41
REMARK H PARENT 1 50 1 51 67 53 63 56 65 58 31 67 31 68 29 77 29 78 27 80
REMARK H PARENT 23 83 25 85 14 88 16 90 7 92 7 93
ROOT
ATOM      1  C   UNL     1      -9.554  -9.102   9.760  1.00  0.00    +0.179 C 
ATOM      2  C   UNL     1     -10.492  -8.069   9.102  1.00  0.00    +0.183 C 
ATOM      3  C   UNL     1      -9.763  -6.735   8.845  1.00  0.00    +0.175 C 
ATOM      4  C   UNL     1      -8.452  -6.992   8.071  1.00  0.00    +0.140 C 
ATOM      5  C   UNL     1      -7.599  -8.027   8.857  1.00  0.00    +0.273 C 
ATOM      6  O   UNL     1      -8.322  -9.239   9.028  1.00  0.00    -0.342 OA
ENDROOT
BRANCH   1   7
ATOM      7  C   UNL     1      -9.308  -8.827  11.264  1.00  0.00    +0.198 C 
BRANCH   7   8
ATOM      8  O   UNL     1      -8.008  -8.270  11.479  1.00  0.00    -0.348 OA
BRANCH   8   9
ATOM      9  C   UNL     1      -8.035  -7.107  12.320  1.00  0.00    +0.270 C 
ATOM     10  C   UNL     1      -8.130  -6.396  14.628  1.00  0.00    +0.178 C 
ATOM     11  C   UNL     1      -7.902  -5.019  13.982  1.00  0.00    +0.176 C 
ATOM     12  O   UNL     1      -8.167  -7.480  13.690  1.00  0.00    -0.342 OA
ATOM     13  C   UNL     1      -6.731  -5.031  12.989  1.00  0.00    +0.167 C 
ATOM     14  C   UNL     1      -6.730  -6.287  12.088  1.00  0.00    +0.139 C 
BRANCH  10  15
ATOM     15  C   UNL     1      -7.128  -6.757  15.736  1.00  0.00    +0.191 C 
BRANCH  15  16
ATOM     16  O   UNL     1      -7.404  -6.058  16.947  1.00  0.00    -0.394 OA
ATOM     17  H   UNL     1      -7.202  -6.667  17.681  1.00  0.00    +0.210 HD
ENDBRANCH  15  16
ENDBRANCH  10  15
BRANCH  11  18
ATOM     18  O   UNL     1      -7.721  -3.969  14.940  1.00  0.00    -0.388 OA
ATOM     19  H   UNL     1      -7.475  -4.387  15.786  1.00  0.00    +0.211 HD
ENDBRANCH  11  18
BRANCH  13  20
ATOM     20  O   UNL     1      -6.835  -3.845  12.174  1.00  0.00    -0.388 OA
ATOM     21  H   UNL     1      -7.706  -3.916  11.738  1.00  0.00    +0.211 HD
ENDBRANCH  13  20
BRANCH  14  22
ATOM     22  N   UNL     1      -5.516  -7.114  12.362  1.00  0.00    -0.321 NA
ATOM     23  H   UNL     1      -5.212  -7.471  11.441  1.00  0.00    +0.119 HD
ATOM     24  H   UNL     1      -4.761  -6.450  12.608  1.00  0.00    +0.119 HD
ENDBRANCH  14  22
ENDBRANCH   8   9
ENDBRANCH   7   8
ENDBRANCH   1   7
BRANCH   2  25
ATOM     25  O   UNL     1     -11.624  -7.822   9.957  1.00  0.00    -0.342 OA
BRANCH  25  26
ATOM     26  C   UNL     1     -12.784  -8.559   9.552  1.00  0.00    +0.270 C 
ATOM     27  C   UNL     1     -13.523  -7.733   8.452  1.00  0.00    +0.139 C 
ATOM     28  O   UNL     1     -13.641  -8.792  10.666  1.00  0.00    -0.342 OA
ATOM     29  C   UNL     1     -14.824  -8.461   8.012  1.00  0.00    +0.167 C 
ATOM     30  C   UNL     1     -14.884  -9.436  10.357  1.00  0.00    +0.178 C 
ATOM     31  C   UNL     1     -15.092  -9.715   8.853  1.00  0.00    +0.176 C 
BRANCH  27  32
ATOM     32  N   UNL     1     -13.741  -6.325   8.876  1.00  0.00    -0.321 NA
ATOM     33  H   UNL     1     -14.016  -6.345   9.864  1.00  0.00    +0.119 HD
ATOM     34  H   UNL     1     -12.822  -5.876   8.885  1.00  0.00    +0.119 HD
ENDBRANCH  27  32
BRANCH  29  35
ATOM     35  O   UNL     1     -15.998  -7.625   8.079  1.00  0.00    -0.388 OA
ATOM     36  H   UNL     1     -16.746  -8.237   7.918  1.00  0.00    +0.211 HD
ENDBRANCH  29  35
BRANCH  30  37
ATOM     37  C   UNL     1     -16.024  -8.654  11.042  1.00  0.00    +0.191 C 
BRANCH  37  38
ATOM     38  O   UNL     1     -15.819  -7.243  11.078  1.00  0.00    -0.394 OA
ATOM     39  H   UNL     1     -15.722  -6.939  10.146  1.00  0.00    +0.210 HD
ENDBRANCH  37  38
ENDBRANCH  30  37
BRANCH  31  40
ATOM     40  O   UNL     1     -16.399 -10.216   8.557  1.00  0.00    -0.388 OA
ATOM     41  H   UNL     1     -16.954 -10.089   9.350  1.00  0.00    +0.211 HD
ENDBRANCH  31  40
ENDBRANCH  25  26
ENDBRANCH   2  25
BRANCH   3  42
ATOM     42  O   UNL     1     -10.677  -5.857   8.151  1.00  0.00    -0.343 OA
BRANCH  42  43
ATOM     43  C   UNL     1     -10.769  -4.540   8.706  1.00  0.00    +0.270 C 
ATOM     44  C   UNL     1     -10.392  -3.542   7.579  1.00  0.00    +0.139 C 
ATOM     45  O   UNL     1      -9.876  -4.460   9.821  1.00  0.00    -0.342 OA
ATOM     46  C   UNL     1     -10.207  -2.124   8.140  1.00  0.00    +0.167 C 
ATOM     47  C   UNL     1      -9.737  -3.155  10.394  1.00  0.00    +0.178 C 
ATOM     48  C   UNL     1      -9.255  -2.145   9.338  1.00  0.00    +0.176 C 
BRANCH  44  49
ATOM     49  N   UNL     1     -11.405  -3.528   6.496  1.00  0.00    -0.321 NA
ATOM     50  H   UNL     1     -11.856  -4.443   6.471  1.00  0.00    +0.119 HD
ATOM     51  H   UNL     1     -10.896  -3.426   5.612  1.00  0.00    +0.119 HD
ENDBRANCH  44  49
BRANCH  46  52
ATOM     52  O   UNL     1      -9.664  -1.266   7.121  1.00  0.00    -0.388 OA
ATOM     53  H   UNL     1     -10.419  -1.063   6.532  1.00  0.00    +0.211 HD
ENDBRANCH  46  52
BRANCH  47  54
ATOM     54  C   UNL     1     -11.004  -2.733  11.162  1.00  0.00    +0.191 C 
BRANCH  54  55
ATOM     55  O   UNL     1     -10.706  -1.689  12.084  1.00  0.00    -0.394 OA
ATOM     56  H   UNL     1     -11.536  -1.194  12.233  1.00  0.00    +0.210 HD
ENDBRANCH  54  55
ENDBRANCH  47  54
BRANCH  48  57
ATOM     57  O   UNL     1      -9.098  -0.809   9.829  1.00  0.00    -0.388 OA
ATOM     58  H   UNL     1      -9.685  -0.708  10.612  1.00  0.00    +0.211 HD
ENDBRANCH  48  57
ENDBRANCH  42  43
ENDBRANCH   3  42
BRANCH   5  59
ATOM     59  O   UNL     1      -6.402  -8.262   8.112  1.00  0.00    -0.320 OA
BRANCH  59  60
ATOM     60  C   UNL     1      -5.203  -8.129   8.877  1.00  0.00    +0.273 C 
ATOM     61  C   UNL     1      -4.790  -9.478   9.536  1.00  0.00    +0.140 C 
ATOM     62  O   UNL     1      -4.204  -7.700   7.939  1.00  0.00    -0.342 OA
ATOM     63  C   UNL     1      -3.386  -9.334  10.160  1.00  0.00    +0.174 C 
ATOM     64  C   UNL     1      -2.919  -7.486   8.544  1.00  0.00    +0.178 C 
ATOM     65  C   UNL     1      -2.382  -8.788   9.139  1.00  0.00    +0.176 C 
BRANCH  61  66
ATOM     66  N   UNL     1      -5.733  -9.940  10.574  1.00  0.00    -0.321 NA
ATOM     67  H   UNL     1      -5.238 -10.584  11.205  1.00  0.00    +0.119 HD
ATOM     68  H   UNL     1      -6.461 -10.512  10.121  1.00  0.00    +0.119 HD
ENDBRANCH  61  66
BRANCH  63  69
ATOM     69  O   UNL     1      -2.892 -10.619  10.589  1.00  0.00    -0.343 OA
BRANCH  69  70
ATOM     70  C   UNL     1      -3.306 -11.680   9.724  1.00  0.00    +0.270 C 
ATOM     71  C   UNL     1      -2.048 -12.339   9.084  1.00  0.00    +0.139 C 
ATOM     72  O   UNL     1      -4.115 -12.592  10.482  1.00  0.00    -0.342 OA
ATOM     73  C   UNL     1      -2.386 -13.804   8.789  1.00  0.00    +0.167 C 
ATOM     74  C   UNL     1      -3.346 -13.609  11.144  1.00  0.00    +0.178 C 
ATOM     75  C   UNL     1      -2.696 -14.550  10.099  1.00  0.00    +0.176 C 
BRANCH  71  76
ATOM     76  N   UNL     1      -1.561 -11.632   7.871  1.00  0.00    -0.321 NA
ATOM     77  H   UNL     1      -1.516 -10.638   8.126  1.00  0.00    +0.119 HD
ATOM     78  H   UNL     1      -0.572 -11.888   7.728  1.00  0.00    +0.119 HD
ENDBRANCH  71  76
BRANCH  73  79
ATOM     79  O   UNL     1      -1.295 -14.455   8.118  1.00  0.00    -0.388 OA
ATOM     80  H   UNL     1      -1.206 -15.321   8.563  1.00  0.00    +0.211 HD
ENDBRANCH  73  79
BRANCH  74  81
ATOM     81  C   UNL     1      -4.257 -14.321  12.153  1.00  0.00    +0.191 C 
BRANCH  81  82
ATOM     82  O   UNL     1      -5.527 -14.629  11.569  1.00  0.00    -0.394 OA
ATOM     83  H   UNL     1      -5.499 -14.306  10.651  1.00  0.00    +0.210 HD
ENDBRANCH  81  82
ENDBRANCH  74  81
BRANCH  75  84
ATOM     84  O   UNL     1      -3.473 -15.701   9.744  1.00  0.00    -0.388 OA
ATOM     85  H   UNL     1      -4.395 -15.391   9.593  1.00  0.00    +0.211 HD
ENDBRANCH  75  84
ENDBRANCH  69  70
ENDBRANCH  63  69
BRANCH  64  86
ATOM     86  C   UNL     1      -1.991  -6.941   7.455  1.00  0.00    +0.191 C 
BRANCH  86  87
ATOM     87  O   UNL     1      -0.996  -7.924   7.145  1.00  0.00    -0.394 OA
ATOM     88  H   UNL     1      -0.333  -7.444   6.611  1.00  0.00    +0.210 HD
ENDBRANCH  86  87
ENDBRANCH  64  86
BRANCH  65  89
ATOM     89  O   UNL     1      -1.122  -8.566   9.784  1.00  0.00    -0.388 OA
ATOM     90  H   UNL     1      -1.336  -8.345  10.713  1.00  0.00    +0.211 HD
ENDBRANCH  65  89
ENDBRANCH  59  60
ENDBRANCH   5  59
BRANCH   4  91
ATOM     91  N   UNL     1      -8.733  -7.421   6.678  1.00  0.00    -0.321 NA
ATOM     92  H   UNL     1      -9.095  -8.377   6.715  1.00  0.00    +0.119 HD
ATOM     93  H   UNL     1      -7.842  -7.450   6.176  1.00  0.00    +0.119 HD
ENDBRANCH   4  91
TORSDOF 36
ENDMDL
MODEL 7
REMARK VINA RESULT:    -5.874      3.889      9.668
REMARK INTER + INTRA:         -21.783
REMARK INTER:                 -13.424
REMARK INTRA:                  -8.360
REMARK UNBOUND:                -6.982
REMARK SMILES N[C@@H]1[C@@H](O[C@@H]2[C@H](N)[C@H](O[C@@H]3O[C@H](CO)[C@@H](O)[C@H](O[C@@H]4O[C@@H](CO)[C@@H](O)[C@H](O)[C@H]4N)[C@H]3N)O[C@@H](CO[C@H]3O[C@@H](CO)[C@@H](O)[C@H](O)[C@H]3N)[C@H]2O[C@H]2O[C@@H](CO)[C@@H](O)[C@@H](O)[C@H]2N)O[C@H](CO)[C@H](O)[C@H]1O
REMARK SMILES IDX 33 1 47 2 5 3 6 4 8 5 32 6 34 7 35 8 36 9 38 10 41 11 37 12
REMARK SMILES IDX 43 13 45 14 39 15 40 16 42 18 44 20 46 22 48 25 49 26 58 27
REMARK SMILES IDX 50 28 56 29 51 30 54 31 59 32 57 35 52 37 53 38 55 40 4 42
REMARK SMILES IDX 3 43 2 44 60 45 66 46 61 47 64 48 1 49 67 52 62 54 63 55
REMARK SMILES IDX 65 57 9 59 10 60 30 61 11 62 17 63 12 64 15 65 31 66 18 69
REMARK SMILES IDX 19 70 28 71 20 72 26 73 21 74 24 75 29 76 27 79 22 81 23 82
REMARK SMILES IDX 25 84 13 86 14 87 16 89 7 91
REMARK H PARENT 40 17 42 19 44 21 46 23 46 24 59 33 59 34 57 36 53 39 55 41
REMARK H PARENT 1 50 1 51 67 53 63 56 65 58 31 67 31 68 29 77 29 78 27 80
REMARK H PARENT 23 83 25 85 14 88 16 90 7 92 7 93
ROOT
ATOM      1  C   UNL     1      -7.198  -4.892   8.918  1.00  0.00    +0.179 C 
ATOM      2  C   UNL     1      -6.783  -6.374   8.812  1.00  0.00    +0.183 C 
ATOM      3  C   UNL     1      -7.945  -7.310   9.201  1.00  0.00    +0.175 C 
ATOM      4  C   UNL     1      -9.210  -6.942   8.396  1.00  0.00    +0.140 C 
ATOM      5  C   UNL     1      -9.524  -5.434   8.615  1.00  0.00    +0.273 C 
ATOM      6  O   UNL     1      -8.422  -4.634   8.205  1.00  0.00    -0.342 OA
ENDROOT
BRANCH   1   7
ATOM      7  C   UNL     1      -7.258  -4.381  10.379  1.00  0.00    +0.198 C 
BRANCH   7   8
ATOM      8  O   UNL     1      -8.291  -5.046  11.113  1.00  0.00    -0.348 OA
BRANCH   8   9
ATOM      9  C   UNL     1      -8.183  -4.841  12.530  1.00  0.00    +0.270 C 
ATOM     10  C   UNL     1      -9.057  -5.575  14.660  1.00  0.00    +0.178 C 
ATOM     11  C   UNL     1      -7.929  -4.671  15.185  1.00  0.00    +0.176 C 
ATOM     12  O   UNL     1      -9.128  -5.646  13.229  1.00  0.00    -0.342 OA
ATOM     13  C   UNL     1      -6.585  -4.966  14.502  1.00  0.00    +0.167 C 
ATOM     14  C   UNL     1      -6.727  -5.173  12.977  1.00  0.00    +0.139 C 
BRANCH  10  15
ATOM     15  C   UNL     1      -9.035  -7.011  15.209  1.00  0.00    +0.191 C 
BRANCH  15  16
ATOM     16  O   UNL     1      -7.704  -7.499  15.359  1.00  0.00    -0.394 OA
ATOM     17  H   UNL     1      -7.204  -7.209  14.574  1.00  0.00    +0.210 HD
ENDBRANCH  15  16
ENDBRANCH  10  15
BRANCH  11  18
ATOM     18  O   UNL     1      -7.777  -4.727  16.609  1.00  0.00    -0.388 OA
ATOM     19  H   UNL     1      -8.670  -4.693  16.997  1.00  0.00    +0.211 HD
ENDBRANCH  11  18
BRANCH  13  20
ATOM     20  O   UNL     1      -5.706  -3.853  14.764  1.00  0.00    -0.388 OA
ATOM     21  H   UNL     1      -5.662  -3.363  13.920  1.00  0.00    +0.211 HD
ENDBRANCH  13  20
BRANCH  14  22
ATOM     22  N   UNL     1      -6.356  -6.574  12.612  1.00  0.00    -0.321 NA
ATOM     23  H   UNL     1      -6.810  -7.173  13.321  1.00  0.00    +0.119 HD
ATOM     24  H   UNL     1      -6.887  -6.800  11.752  1.00  0.00    +0.119 HD
ENDBRANCH  14  22
ENDBRANCH   8   9
ENDBRANCH   7   8
ENDBRANCH   1   7
BRANCH   2  25
ATOM     25  O   UNL     1      -5.668  -6.633   9.685  1.00  0.00    -0.342 OA
BRANCH  25  26
ATOM     26  C   UNL     1      -4.793  -7.642   9.165  1.00  0.00    +0.270 C 
ATOM     27  C   UNL     1      -4.292  -8.512  10.360  1.00  0.00    +0.139 C 
ATOM     28  O   UNL     1      -3.693  -7.044   8.483  1.00  0.00    -0.342 OA
ATOM     29  C   UNL     1      -3.292  -9.592   9.861  1.00  0.00    +0.167 C 
ATOM     30  C   UNL     1      -2.698  -7.962   8.007  1.00  0.00    +0.178 C 
ATOM     31  C   UNL     1      -2.976  -9.435   8.369  1.00  0.00    +0.176 C 
BRANCH  27  32
ATOM     32  N   UNL     1      -3.761  -7.672  11.466  1.00  0.00    -0.321 NA
ATOM     33  H   UNL     1      -3.814  -8.230  12.325  1.00  0.00    +0.119 HD
ATOM     34  H   UNL     1      -2.757  -7.569  11.300  1.00  0.00    +0.119 HD
ENDBRANCH  27  32
BRANCH  29  35
ATOM     35  O   UNL     1      -2.041  -9.590  10.581  1.00  0.00    -0.388 OA
ATOM     36  H   UNL     1      -1.726  -8.663  10.523  1.00  0.00    +0.211 HD
ENDBRANCH  29  35
BRANCH  30  37
ATOM     37  C   UNL     1      -1.309  -7.435   8.423  1.00  0.00    +0.191 C 
BRANCH  37  38
ATOM     38  O   UNL     1      -1.194  -7.140   9.814  1.00  0.00    -0.394 OA
ATOM     39  H   UNL     1      -0.611  -7.828  10.209  1.00  0.00    +0.210 HD
ENDBRANCH  37  38
ENDBRANCH  30  37
BRANCH  31  40
ATOM     40  O   UNL     1      -1.896 -10.306   8.018  1.00  0.00    -0.388 OA
ATOM     41  H   UNL     1      -2.275 -11.088   7.573  1.00  0.00    +0.211 HD
ENDBRANCH  31  40
ENDBRANCH  25  26
ENDBRANCH   2  25
BRANCH   3  42
ATOM     42  O   UNL     1      -7.508  -8.671   8.992  1.00  0.00    -0.343 OA
BRANCH  42  43
ATOM     43  C   UNL     1      -7.798  -9.559  10.078  1.00  0.00    +0.270 C 
ATOM     44  C   UNL     1      -8.914 -10.522   9.594  1.00  0.00    +0.139 C 
ATOM     45  O   UNL     1      -8.208  -8.775  11.202  1.00  0.00    -0.342 OA
ATOM     46  C   UNL     1      -9.477 -11.342  10.765  1.00  0.00    +0.167 C 
ATOM     47  C   UNL     1      -8.681  -9.526  12.324  1.00  0.00    +0.178 C 
ATOM     48  C   UNL     1      -9.868 -10.420  11.921  1.00  0.00    +0.176 C 
BRANCH  44  49
ATOM     49  N   UNL     1      -8.431 -11.432   8.527  1.00  0.00    -0.321 NA
ATOM     50  H   UNL     1      -8.458 -12.387   8.887  1.00  0.00    +0.119 HD
ATOM     51  H   UNL     1      -7.445 -11.206   8.364  1.00  0.00    +0.119 HD
ENDBRANCH  44  49
BRANCH  46  52
ATOM     52  O   UNL     1     -10.639 -12.073  10.331  1.00  0.00    -0.388 OA
ATOM     53  H   UNL     1     -11.250 -12.054  11.095  1.00  0.00    +0.211 HD
ENDBRANCH  46  52
BRANCH  47  54
ATOM     54  C   UNL     1      -7.533 -10.260  13.043  1.00  0.00    +0.191 C 
BRANCH  54  55
ATOM     55  O   UNL     1      -6.502  -9.346  13.403  1.00  0.00    -0.394 OA
ATOM     56  H   UNL     1      -5.921  -9.249  12.624  1.00  0.00    +0.210 HD
ENDBRANCH  54  55
ENDBRANCH  47  54
BRANCH  48  57
ATOM     57  O   UNL     1     -10.397 -11.215  12.989  1.00  0.00    -0.388 OA
ATOM     58  H   UNL     1      -9.921 -10.962  13.813  1.00  0.00    +0.211 HD
ENDBRANCH  48  57
ENDBRANCH  42  43
ENDBRANCH   3  42
BRANCH   5  59
ATOM     59  O   UNL     1     -10.685  -5.114   7.845  1.00  0.00    -0.320 OA
BRANCH  59  60
ATOM     60  C   UNL     1     -11.818  -4.737   8.628  1.00  0.00    +0.273 C 
ATOM     61  C   UNL     1     -12.695  -5.968   8.999  1.00  0.00    +0.140 C 
ATOM     62  O   UNL     1     -11.273  -4.132   9.810  1.00  0.00    -0.342 OA
ATOM     63  C   UNL     1     -13.772  -5.542  10.019  1.00  0.00    +0.174 C 
ATOM     64  C   UNL     1     -12.283  -3.660  10.718  1.00  0.00    +0.178 C 
ATOM     65  C   UNL     1     -13.141  -4.823  11.216  1.00  0.00    +0.176 C 
BRANCH  61  66
ATOM     66  N   UNL     1     -13.356  -6.593   7.835  1.00  0.00    -0.321 NA
ATOM     67  H   UNL     1     -13.571  -7.572   8.066  1.00  0.00    +0.119 HD
ATOM     68  H   UNL     1     -12.676  -6.641   7.061  1.00  0.00    +0.119 HD
ENDBRANCH  61  66
BRANCH  63  69
ATOM     69  O   UNL     1     -14.459  -6.699  10.538  1.00  0.00    -0.343 OA
BRANCH  69  70
ATOM     70  C   UNL     1     -13.584  -7.586  11.239  1.00  0.00    +0.270 C 
ATOM     71  C   UNL     1     -14.301  -8.107  12.520  1.00  0.00    +0.139 C 
ATOM     72  O   UNL     1     -13.180  -8.628  10.337  1.00  0.00    -0.342 OA
ATOM     73  C   UNL     1     -13.738  -9.495  12.839  1.00  0.00    +0.167 C 
ATOM     74  C   UNL     1     -14.085  -9.743  10.325  1.00  0.00    +0.178 C 
ATOM     75  C   UNL     1     -14.053 -10.471  11.692  1.00  0.00    +0.176 C 
BRANCH  71  76
ATOM     76  N   UNL     1     -14.184  -7.185  13.680  1.00  0.00    -0.321 NA
ATOM     77  H   UNL     1     -14.221  -7.780  14.515  1.00  0.00    +0.119 HD
ATOM     78  H   UNL     1     -13.222  -6.811  13.694  1.00  0.00    +0.119 HD
ENDBRANCH  71  76
BRANCH  73  79
ATOM     79  O   UNL     1     -14.296 -10.004  14.063  1.00  0.00    -0.388 OA
ATOM     80  H   UNL     1     -15.262  -9.905  13.958  1.00  0.00    +0.211 HD
ENDBRANCH  73  79
BRANCH  74  81
ATOM     81  C   UNL     1     -13.734 -10.636   9.127  1.00  0.00    +0.191 C 
BRANCH  81  82
ATOM     82  O   UNL     1     -12.337 -10.564   8.827  1.00  0.00    -0.394 OA
ATOM     83  H   UNL     1     -11.865 -10.923   9.600  1.00  0.00    +0.210 HD
ENDBRANCH  81  82
ENDBRANCH  74  81
BRANCH  75  84
ATOM     84  O   UNL     1     -13.106 -11.544  11.792  1.00  0.00    -0.388 OA
ATOM     85  H   UNL     1     -13.573 -12.303  12.209  1.00  0.00    +0.211 HD
ENDBRANCH  75  84
ENDBRANCH  69  70
ENDBRANCH  63  69
BRANCH  64  86
ATOM     86  C   UNL     1     -11.562  -2.959  11.872  1.00  0.00    +0.191 C 
BRANCH  86  87
ATOM     87  O   UNL     1     -11.549  -3.820  13.016  1.00  0.00    -0.394 OA
ATOM     88  H   UNL     1     -11.818  -4.694  12.670  1.00  0.00    +0.210 HD
ENDBRANCH  86  87
ENDBRANCH  64  86
BRANCH  65  89
ATOM     89  O   UNL     1     -14.177  -4.348  12.085  1.00  0.00    -0.388 OA
ATOM     90  H   UNL     1     -14.986  -4.308  11.534  1.00  0.00    +0.211 HD
ENDBRANCH  65  89
ENDBRANCH  59  60
ENDBRANCH   5  59
BRANCH   4  91
ATOM     91  N   UNL     1      -9.048  -7.291   6.963  1.00  0.00    -0.321 NA
ATOM     92  H   UNL     1      -9.839  -6.890   6.453  1.00  0.00    +0.119 HD
ATOM     93  H   UNL     1      -9.114  -8.308   6.881  1.00  0.00    +0.119 HD
ENDBRANCH   4  91
TORSDOF 36
ENDMDL
MODEL 8
REMARK VINA RESULT:    -5.797     26.691     30.604
REMARK INTER + INTRA:         -21.591
REMARK INTER:                 -14.529
REMARK INTRA:                  -7.062
REMARK UNBOUND:                -6.982
REMARK SMILES N[C@@H]1[C@@H](O[C@@H]2[C@H](N)[C@H](O[C@@H]3O[C@H](CO)[C@@H](O)[C@H](O[C@@H]4O[C@@H](CO)[C@@H](O)[C@H](O)[C@H]4N)[C@H]3N)O[C@@H](CO[C@H]3O[C@@H](CO)[C@@H](O)[C@H](O)[C@H]3N)[C@H]2O[C@H]2O[C@@H](CO)[C@@H](O)[C@@H](O)[C@H]2N)O[C@H](CO)[C@H](O)[C@H]1O
REMARK SMILES IDX 33 1 47 2 5 3 6 4 8 5 32 6 34 7 35 8 36 9 38 10 41 11 37 12
REMARK SMILES IDX 43 13 45 14 39 15 40 16 42 18 44 20 46 22 48 25 49 26 58 27
REMARK SMILES IDX 50 28 56 29 51 30 54 31 59 32 57 35 52 37 53 38 55 40 4 42
REMARK SMILES IDX 3 43 2 44 60 45 66 46 61 47 64 48 1 49 67 52 62 54 63 55
REMARK SMILES IDX 65 57 9 59 10 60 30 61 11 62 17 63 12 64 15 65 31 66 18 69
REMARK SMILES IDX 19 70 28 71 20 72 26 73 21 74 24 75 29 76 27 79 22 81 23 82
REMARK SMILES IDX 25 84 13 86 14 87 16 89 7 91
REMARK H PARENT 40 17 42 19 44 21 46 23 46 24 59 33 59 34 57 36 53 39 55 41
REMARK H PARENT 1 50 1 51 67 53 63 56 65 58 31 67 31 68 29 77 29 78 27 80
REMARK H PARENT 23 83 25 85 14 88 16 90 7 92 7 93
ROOT
ATOM      1  C   UNL     1      -0.469 -11.986 -18.281  1.00  0.00    +0.179 C 
ATOM      2  C   UNL     1      -0.979 -13.222 -17.512  1.00  0.00    +0.183 C 
ATOM      3  C   UNL     1      -0.532 -14.530 -18.194  1.00  0.00    +0.175 C 
ATOM      4  C   UNL     1       0.994 -14.507 -18.428  1.00  0.00    +0.140 C 
ATOM      5  C   UNL     1       1.360 -13.228 -19.232  1.00  0.00    +0.273 C 
ATOM      6  O   UNL     1       0.947 -12.064 -18.528  1.00  0.00    -0.342 OA
ENDROOT
BRANCH   1   7
ATOM      7  C   UNL     1      -1.270 -11.705 -19.577  1.00  0.00    +0.198 C 
BRANCH   7   8
ATOM      8  O   UNL     1      -1.309 -10.304 -19.863  1.00  0.00    -0.348 OA
BRANCH   8   9
ATOM      9  C   UNL     1      -2.623  -9.848 -20.220  1.00  0.00    +0.270 C 
ATOM     10  C   UNL     1      -4.907 -10.581 -20.519  1.00  0.00    +0.178 C 
ATOM     11  C   UNL     1      -5.136  -9.070 -20.689  1.00  0.00    +0.176 C 
ATOM     12  O   UNL     1      -3.544 -10.935 -20.245  1.00  0.00    -0.342 OA
ATOM     13  C   UNL     1      -4.489  -8.255 -19.559  1.00  0.00    +0.167 C 
ATOM     14  C   UNL     1      -3.072  -8.758 -19.200  1.00  0.00    +0.139 C 
BRANCH  10  15
ATOM     15  C   UNL     1      -5.797 -11.249 -19.458  1.00  0.00    +0.191 C 
BRANCH  15  16
ATOM     16  O   UNL     1      -5.026 -11.799 -18.393  1.00  0.00    -0.394 OA
ATOM     17  H   UNL     1      -4.167 -12.062 -18.768  1.00  0.00    +0.210 HD
ENDBRANCH  15  16
ENDBRANCH  10  15
BRANCH  11  18
ATOM     18  O   UNL     1      -6.520  -8.720 -20.814  1.00  0.00    -0.388 OA
ATOM     19  H   UNL     1      -6.685  -7.968 -20.215  1.00  0.00    +0.211 HD
ENDBRANCH  11  18
BRANCH  13  20
ATOM     20  O   UNL     1      -4.424  -6.881 -19.992  1.00  0.00    -0.388 OA
ATOM     21  H   UNL     1      -4.820  -6.368 -19.262  1.00  0.00    +0.211 HD
ENDBRANCH  13  20
BRANCH  14  22
ATOM     22  N   UNL     1      -3.054  -9.287 -17.802  1.00  0.00    -0.321 NA
ATOM     23  H   UNL     1      -3.555  -8.584 -17.235  1.00  0.00    +0.119 HD
ATOM     24  H   UNL     1      -3.703 -10.094 -17.788  1.00  0.00    +0.119 HD
ENDBRANCH  14  22
ENDBRANCH   8   9
ENDBRANCH   7   8
ENDBRANCH   1   7
BRANCH   2  25
ATOM     25  O   UNL     1      -2.417 -13.200 -17.449  1.00  0.00    -0.342 OA
BRANCH  25  26
ATOM     26  C   UNL     1      -2.901 -13.034 -16.110  1.00  0.00    +0.270 C 
ATOM     27  C   UNL     1      -3.879 -14.210 -15.799  1.00  0.00    +0.139 C 
ATOM     28  O   UNL     1      -3.564 -11.779 -15.972  1.00  0.00    -0.342 OA
ATOM     29  C   UNL     1      -4.480 -14.051 -14.374  1.00  0.00    +0.167 C 
ATOM     30  C   UNL     1      -4.177 -11.550 -14.696  1.00  0.00    +0.178 C 
ATOM     31  C   UNL     1      -4.052 -12.735 -13.715  1.00  0.00    +0.176 C 
BRANCH  27  32
ATOM     32  N   UNL     1      -4.903 -14.369 -16.864  1.00  0.00    -0.321 NA
ATOM     33  H   UNL     1      -5.740 -13.860 -16.560  1.00  0.00    +0.119 HD
ATOM     34  H   UNL     1      -4.571 -13.837 -17.672  1.00  0.00    +0.119 HD
ENDBRANCH  27  32
BRANCH  29  35
ATOM     35  O   UNL     1      -5.922 -14.109 -14.352  1.00  0.00    -0.388 OA
ATOM     36  H   UNL     1      -6.190 -13.352 -13.788  1.00  0.00    +0.211 HD
ENDBRANCH  29  35
BRANCH  30  37
ATOM     37  C   UNL     1      -5.615 -11.041 -14.929  1.00  0.00    +0.191 C 
BRANCH  37  38
ATOM     38  O   UNL     1      -6.310 -11.726 -15.969  1.00  0.00    -0.394 OA
ATOM     39  H   UNL     1      -5.823 -11.554 -16.807  1.00  0.00    +0.210 HD
ENDBRANCH  37  38
ENDBRANCH  30  37
BRANCH  31  40
ATOM     40  O   UNL     1      -4.802 -12.540 -12.511  1.00  0.00    -0.388 OA
ATOM     41  H   UNL     1      -5.694 -12.908 -12.653  1.00  0.00    +0.211 HD
ENDBRANCH  31  40
ENDBRANCH  25  26
ENDBRANCH   2  25
BRANCH   3  42
ATOM     42  O   UNL     1      -0.970 -15.632 -17.370  1.00  0.00    -0.343 OA
BRANCH  42  43
ATOM     43  C   UNL     1      -1.246 -16.838 -18.093  1.00  0.00    +0.270 C 
ATOM     44  C   UNL     1      -2.783 -17.052 -18.055  1.00  0.00    +0.139 C 
ATOM     45  O   UNL     1      -0.535 -17.910 -17.466  1.00  0.00    -0.342 OA
ATOM     46  C   UNL     1      -3.156 -18.448 -18.575  1.00  0.00    +0.167 C 
ATOM     47  C   UNL     1      -0.828 -19.213 -17.979  1.00  0.00    +0.178 C 
ATOM     48  C   UNL     1      -2.331 -19.521 -17.861  1.00  0.00    +0.176 C 
BRANCH  44  49
ATOM     49  N   UNL     1      -3.502 -16.014 -18.834  1.00  0.00    -0.321 NA
ATOM     50  H   UNL     1      -3.856 -16.446 -19.688  1.00  0.00    +0.119 HD
ATOM     51  H   UNL     1      -2.806 -15.319 -19.121  1.00  0.00    +0.119 HD
ENDBRANCH  44  49
BRANCH  46  52
ATOM     52  O   UNL     1      -4.555 -18.695 -18.341  1.00  0.00    -0.388 OA
ATOM     53  H   UNL     1      -4.865 -19.170 -19.138  1.00  0.00    +0.211 HD
ENDBRANCH  46  52
BRANCH  47  54
ATOM     54  C   UNL     1      -0.234 -19.418 -19.385  1.00  0.00    +0.191 C 
BRANCH  54  55
ATOM     55  O   UNL     1      -0.157 -20.805 -19.700  1.00  0.00    -0.394 OA
ATOM     56  H   UNL     1       0.620 -20.923 -20.282  1.00  0.00    +0.210 HD
ENDBRANCH  54  55
ENDBRANCH  47  54
BRANCH  48  57
ATOM     57  O   UNL     1      -2.711 -20.807 -18.362  1.00  0.00    -0.388 OA
ATOM     58  H   UNL     1      -3.603 -21.017 -18.003  1.00  0.00    +0.211 HD
ENDBRANCH  48  57
ENDBRANCH  42  43
ENDBRANCH   3  42
BRANCH   5  59
ATOM     59  O   UNL     1       2.778 -13.220 -19.418  1.00  0.00    -0.320 OA
BRANCH  59  60
ATOM     60  C   UNL     1       3.237 -12.247 -20.358  1.00  0.00    +0.273 C 
ATOM     61  C   UNL     1       4.247 -11.255 -19.710  1.00  0.00    +0.140 C 
ATOM     62  O   UNL     1       3.871 -13.002 -21.401  1.00  0.00    -0.342 OA
ATOM     63  C   UNL     1       4.875 -10.373 -20.810  1.00  0.00    +0.174 C 
ATOM     64  C   UNL     1       4.378 -12.179 -22.464  1.00  0.00    +0.178 C 
ATOM     65  C   UNL     1       5.456 -11.230 -21.939  1.00  0.00    +0.176 C 
BRANCH  61  66
ATOM     66  N   UNL     1       3.642 -10.385 -18.682  1.00  0.00    -0.321 NA
ATOM     67  H   UNL     1       4.086  -9.459 -18.732  1.00  0.00    +0.119 HD
ATOM     68  H   UNL     1       3.894 -10.755 -17.753  1.00  0.00    +0.119 HD
ENDBRANCH  61  66
BRANCH  63  69
ATOM     69  O   UNL     1       5.963  -9.595 -20.270  1.00  0.00    -0.343 OA
BRANCH  69  70
ATOM     70  C   UNL     1       5.680  -8.193 -20.258  1.00  0.00    +0.270 C 
ATOM     71  C   UNL     1       6.285  -7.560 -18.969  1.00  0.00    +0.139 C 
ATOM     72  O   UNL     1       6.182  -7.621 -21.475  1.00  0.00    -0.342 OA
ATOM     73  C   UNL     1       6.623  -6.098 -19.282  1.00  0.00    +0.167 C 
ATOM     74  C   UNL     1       7.555  -7.210 -21.379  1.00  0.00    +0.178 C 
ATOM     75  C   UNL     1       7.689  -6.027 -20.388  1.00  0.00    +0.176 C 
BRANCH  71  76
ATOM     76  N   UNL     1       5.400  -7.679 -17.781  1.00  0.00    -0.321 NA
ATOM     77  H   UNL     1       4.650  -8.323 -18.054  1.00  0.00    +0.119 HD
ATOM     78  H   UNL     1       5.913  -8.202 -17.053  1.00  0.00    +0.119 HD
ENDBRANCH  71  76
BRANCH  73  79
ATOM     79  O   UNL     1       7.109  -5.425 -18.108  1.00  0.00    -0.388 OA
ATOM     80  H   UNL     1       7.877  -4.906 -18.416  1.00  0.00    +0.211 HD
ENDBRANCH  73  79
BRANCH  74  81
ATOM     81  C   UNL     1       8.068  -6.910 -22.793  1.00  0.00    +0.191 C 
BRANCH  81  82
ATOM     82  O   UNL     1       7.184  -6.019 -23.481  1.00  0.00    -0.394 OA
ATOM     83  H   UNL     1       6.716  -5.506 -22.798  1.00  0.00    +0.210 HD
ENDBRANCH  81  82
ENDBRANCH  74  81
BRANCH  75  84
ATOM     84  O   UNL     1       7.587  -4.723 -20.976  1.00  0.00    -0.388 OA
ATOM     85  H   UNL     1       7.047  -4.173 -20.364  1.00  0.00    +0.211 HD
ENDBRANCH  75  84
ENDBRANCH  69  70
ENDBRANCH  63  69
BRANCH  64  86
ATOM     86  C   UNL     1       4.931 -13.118 -23.539  1.00  0.00    +0.191 C 
BRANCH  86  87
ATOM     87  O   UNL     1       3.931 -14.082 -23.887  1.00  0.00    -0.394 OA
ATOM     88  H   UNL     1       4.007 -14.775 -23.202  1.00  0.00    +0.210 HD
ENDBRANCH  86  87
ENDBRANCH  64  86
BRANCH  65  89
ATOM     89  O   UNL     1       5.929 -10.376 -22.988  1.00  0.00    -0.388 OA
ATOM     90  H   UNL     1       6.440  -9.669 -22.542  1.00  0.00    +0.211 HD
ENDBRANCH  65  89
ENDBRANCH  59  60
ENDBRANCH   5  59
BRANCH   4  91
ATOM     91  N   UNL     1       1.730 -14.606 -17.143  1.00  0.00    -0.321 NA
ATOM     92  H   UNL     1       2.576 -14.037 -17.224  1.00  0.00    +0.119 HD
ATOM     93  H   UNL     1       2.025 -15.579 -17.027  1.00  0.00    +0.119 HD
ENDBRANCH   4  91
TORSDOF 36
ENDMDL
MODEL 9
REMARK VINA RESULT:    -5.791      2.856      7.186
REMARK INTER + INTRA:         -21.575
REMARK INTER:                 -15.103
REMARK INTRA:                  -6.472
REMARK UNBOUND:                -6.982
REMARK SMILES N[C@@H]1[C@@H](O[C@@H]2[C@H](N)[C@H](O[C@@H]3O[C@H](CO)[C@@H](O)[C@H](O[C@@H]4O[C@@H](CO)[C@@H](O)[C@H](O)[C@H]4N)[C@H]3N)O[C@@H](CO[C@H]3O[C@@H](CO)[C@@H](O)[C@H](O)[C@H]3N)[C@H]2O[C@H]2O[C@@H](CO)[C@@H](O)[C@@H](O)[C@H]2N)O[C@H](CO)[C@H](O)[C@H]1O
REMARK SMILES IDX 33 1 47 2 5 3 6 4 8 5 32 6 34 7 35 8 36 9 38 10 41 11 37 12
REMARK SMILES IDX 43 13 45 14 39 15 40 16 42 18 44 20 46 22 48 25 49 26 58 27
REMARK SMILES IDX 50 28 56 29 51 30 54 31 59 32 57 35 52 37 53 38 55 40 4 42
REMARK SMILES IDX 3 43 2 44 60 45 66 46 61 47 64 48 1 49 67 52 62 54 63 55
REMARK SMILES IDX 65 57 9 59 10 60 30 61 11 62 17 63 12 64 15 65 31 66 18 69
REMARK SMILES IDX 19 70 28 71 20 72 26 73 21 74 24 75 29 76 27 79 22 81 23 82
REMARK SMILES IDX 25 84 13 86 14 87 16 89 7 91
REMARK H PARENT 40 17 42 19 44 21 46 23 46 24 59 33 59 34 57 36 53 39 55 41
REMARK H PARENT 1 50 1 51 67 53 63 56 65 58 31 67 31 68 29 77 29 78 27 80
REMARK H PARENT 23 83 25 85 14 88 16 90 7 92 7 93
ROOT
ATOM      1  C   UNL     1      -9.381  -8.870   9.917  1.00  0.00    +0.179 C 
ATOM      2  C   UNL     1      -8.232  -7.841   9.901  1.00  0.00    +0.183 C 
ATOM      3  C   UNL     1      -6.861  -8.530  10.061  1.00  0.00    +0.175 C 
ATOM      4  C   UNL     1      -6.718  -9.666   9.025  1.00  0.00    +0.140 C 
ATOM      5  C   UNL     1      -7.925 -10.636   9.171  1.00  0.00    +0.273 C 
ATOM      6  O   UNL     1      -9.149  -9.938   8.980  1.00  0.00    -0.342 OA
ENDROOT
BRANCH   1   7
ATOM      7  C   UNL     1      -9.698  -9.402  11.336  1.00  0.00    +0.198 C 
BRANCH   7   8
ATOM      8  O   UNL     1     -10.501 -10.586  11.274  1.00  0.00    -0.348 OA
BRANCH   8   9
ATOM      9  C   UNL     1     -11.908 -10.303  11.295  1.00  0.00    +0.270 C 
ATOM     10  C   UNL     1     -13.527  -8.534  10.993  1.00  0.00    +0.178 C 
ATOM     11  C   UNL     1     -14.508  -9.711  11.124  1.00  0.00    +0.176 C 
ATOM     12  O   UNL     1     -12.147  -8.916  11.066  1.00  0.00    -0.342 OA
ATOM     13  C   UNL     1     -14.131 -10.886  10.210  1.00  0.00    +0.167 C 
ATOM     14  C   UNL     1     -12.613 -11.176  10.213  1.00  0.00    +0.139 C 
BRANCH  10  15
ATOM     15  C   UNL     1     -13.719  -7.679   9.729  1.00  0.00    +0.191 C 
BRANCH  15  16
ATOM     16  O   UNL     1     -12.593  -7.762   8.859  1.00  0.00    -0.394 OA
ATOM     17  H   UNL     1     -11.813  -7.929   9.417  1.00  0.00    +0.210 HD
ENDBRANCH  15  16
ENDBRANCH  10  15
BRANCH  11  18
ATOM     18  O   UNL     1     -15.873  -9.335  10.901  1.00  0.00    -0.388 OA
ATOM     19  H   UNL     1     -16.240  -9.954  10.243  1.00  0.00    +0.211 HD
ENDBRANCH  11  18
BRANCH  13  20
ATOM     20  O   UNL     1     -14.852 -12.048  10.669  1.00  0.00    -0.388 OA
ATOM     21  H   UNL     1     -14.665 -12.097  11.626  1.00  0.00    +0.211 HD
ENDBRANCH  13  20
BRANCH  14  22
ATOM     22  N   UNL     1     -12.039 -10.924   8.857  1.00  0.00    -0.321 NA
ATOM     23  H   UNL     1     -11.176 -11.490   8.813  1.00  0.00    +0.119 HD
ATOM     24  H   UNL     1     -12.660 -11.406   8.183  1.00  0.00    +0.119 HD
ENDBRANCH  14  22
ENDBRANCH   8   9
ENDBRANCH   7   8
ENDBRANCH   1   7
BRANCH   2  25
ATOM     25  O   UNL     1      -8.404  -6.898  10.974  1.00  0.00    -0.342 OA
BRANCH  25  26
ATOM     26  C   UNL     1      -8.565  -5.555  10.499  1.00  0.00    +0.270 C 
ATOM     27  C   UNL     1      -9.873  -4.975  11.120  1.00  0.00    +0.139 C 
ATOM     28  O   UNL     1      -8.632  -5.535   9.075  1.00  0.00    -0.342 OA
ATOM     29  C   UNL     1     -10.129  -3.534  10.594  1.00  0.00    +0.167 C 
ATOM     30  C   UNL     1      -8.894  -4.250   8.494  1.00  0.00    +0.178 C 
ATOM     31  C   UNL     1      -9.108  -3.124   9.527  1.00  0.00    +0.176 C 
BRANCH  27  32
ATOM     32  N   UNL     1     -11.026  -5.893  10.929  1.00  0.00    -0.321 NA
ATOM     33  H   UNL     1     -10.970  -6.257   9.972  1.00  0.00    +0.119 HD
ATOM     34  H   UNL     1     -10.849  -6.713  11.515  1.00  0.00    +0.119 HD
ENDBRANCH  27  32
BRANCH  29  35
ATOM     35  O   UNL     1     -11.448  -3.355  10.037  1.00  0.00    -0.388 OA
ATOM     36  H   UNL     1     -12.025  -3.201  10.815  1.00  0.00    +0.211 HD
ENDBRANCH  29  35
BRANCH  30  37
ATOM     37  C   UNL     1     -10.020  -4.406   7.451  1.00  0.00    +0.191 C 
BRANCH  37  38
ATOM     38  O   UNL     1     -11.006  -5.375   7.802  1.00  0.00    -0.394 OA
ATOM     39  H   UNL     1     -10.694  -5.823   8.621  1.00  0.00    +0.210 HD
ENDBRANCH  37  38
ENDBRANCH  30  37
BRANCH  31  40
ATOM     40  O   UNL     1      -9.517  -1.891   8.926  1.00  0.00    -0.388 OA
ATOM     41  H   UNL     1      -8.732  -1.485   8.514  1.00  0.00    +0.211 HD
ENDBRANCH  31  40
ENDBRANCH  25  26
ENDBRANCH   2  25
BRANCH   3  42
ATOM     42  O   UNL     1      -5.839  -7.516   9.947  1.00  0.00    -0.343 OA
BRANCH  42  43
ATOM     43  C   UNL     1      -4.526  -8.026   9.687  1.00  0.00    +0.270 C 
ATOM     44  C   UNL     1      -3.912  -8.427  11.054  1.00  0.00    +0.139 C 
ATOM     45  O   UNL     1      -3.769  -7.004   9.032  1.00  0.00    -0.342 OA
ATOM     46  C   UNL     1      -2.415  -8.741  10.913  1.00  0.00    +0.167 C 
ATOM     47  C   UNL     1      -2.383  -7.305   8.840  1.00  0.00    +0.178 C 
ATOM     48  C   UNL     1      -1.698  -7.601  10.186  1.00  0.00    +0.176 C 
BRANCH  44  49
ATOM     49  N   UNL     1      -4.616  -9.586  11.655  1.00  0.00    -0.321 NA
ATOM     50  H   UNL     1      -4.605 -10.350  10.978  1.00  0.00    +0.119 HD
ATOM     51  H   UNL     1      -5.596  -9.312  11.775  1.00  0.00    +0.119 HD
ENDBRANCH  44  49
BRANCH  46  52
ATOM     52  O   UNL     1      -1.829  -8.909  12.217  1.00  0.00    -0.388 OA
ATOM     53  H   UNL     1      -2.583  -9.104  12.810  1.00  0.00    +0.211 HD
ENDBRANCH  46  52
BRANCH  47  54
ATOM     54  C   UNL     1      -2.179  -8.382   7.758  1.00  0.00    +0.191 C 
BRANCH  54  55
ATOM     55  O   UNL     1      -0.832  -8.381   7.297  1.00  0.00    -0.394 OA
ATOM     56  H   UNL     1      -0.864  -8.416   6.321  1.00  0.00    +0.210 HD
ENDBRANCH  54  55
ENDBRANCH  47  54
BRANCH  48  57
ATOM     57  O   UNL     1      -0.306  -7.922  10.080  1.00  0.00    -0.388 OA
ATOM     58  H   UNL     1      -0.214  -8.633   9.407  1.00  0.00    +0.211 HD
ENDBRANCH  48  57
ENDBRANCH  42  43
ENDBRANCH   3  42
BRANCH   5  59
ATOM     59  O   UNL     1      -7.780 -11.664   8.189  1.00  0.00    -0.320 OA
BRANCH  59  60
ATOM     60  C   UNL     1      -7.657 -12.978   8.736  1.00  0.00    +0.273 C 
ATOM     61  C   UNL     1      -6.204 -13.267   9.216  1.00  0.00    +0.140 C 
ATOM     62  O   UNL     1      -8.570 -13.012   9.843  1.00  0.00    -0.342 OA
ATOM     63  C   UNL     1      -6.177 -14.601   9.991  1.00  0.00    +0.174 C 
ATOM     64  C   UNL     1      -8.602 -14.286  10.507  1.00  0.00    +0.178 C 
ATOM     65  C   UNL     1      -7.233 -14.614  11.102  1.00  0.00    +0.176 C 
BRANCH  61  66
ATOM     66  N   UNL     1      -5.221 -13.329   8.117  1.00  0.00    -0.321 NA
ATOM     67  H   UNL     1      -4.285 -13.147   8.502  1.00  0.00    +0.119 HD
ATOM     68  H   UNL     1      -5.404 -12.546   7.471  1.00  0.00    +0.119 HD
ENDBRANCH  61  66
BRANCH  63  69
ATOM     69  O   UNL     1      -4.896 -14.787  10.626  1.00  0.00    -0.343 OA
BRANCH  69  70
ATOM     70  C   UNL     1      -4.574 -13.727  11.530  1.00  0.00    +0.270 C 
ATOM     71  C   UNL     1      -3.901 -14.325  12.802  1.00  0.00    +0.139 C 
ATOM     72  O   UNL     1      -3.755 -12.774  10.835  1.00  0.00    -0.342 OA
ATOM     73  C   UNL     1      -2.959 -13.261  13.376  1.00  0.00    +0.167 C 
ATOM     74  C   UNL     1      -2.353 -13.080  10.905  1.00  0.00    +0.178 C 
ATOM     75  C   UNL     1      -1.848 -12.936  12.362  1.00  0.00    +0.176 C 
BRANCH  71  76
ATOM     76  N   UNL     1      -4.876 -14.802  13.818  1.00  0.00    -0.321 NA
ATOM     77  H   UNL     1      -4.931 -14.059  14.523  1.00  0.00    +0.119 HD
ATOM     78  H   UNL     1      -5.814 -14.796  13.387  1.00  0.00    +0.119 HD
ENDBRANCH  71  76
BRANCH  73  79
ATOM     79  O   UNL     1      -2.365 -13.714  14.604  1.00  0.00    -0.388 OA
ATOM     80  H   UNL     1      -1.728 -14.405  14.335  1.00  0.00    +0.211 HD
ENDBRANCH  73  79
BRANCH  74  81
ATOM     81  C   UNL     1      -1.616 -12.195   9.891  1.00  0.00    +0.191 C 
BRANCH  81  82
ATOM     82  O   UNL     1      -0.363 -12.777   9.518  1.00  0.00    -0.394 OA
ATOM     83  H   UNL     1      -0.305 -13.635   9.976  1.00  0.00    +0.210 HD
ENDBRANCH  81  82
ENDBRANCH  74  81
BRANCH  75  84
ATOM     84  O   UNL     1      -1.341 -11.640  12.708  1.00  0.00    -0.388 OA
ATOM     85  H   UNL     1      -0.359 -11.702  12.693  1.00  0.00    +0.211 HD
ENDBRANCH  75  84
ENDBRANCH  69  70
ENDBRANCH  63  69
BRANCH  64  86
ATOM     86  C   UNL     1      -9.680 -14.203  11.592  1.00  0.00    +0.191 C 
BRANCH  86  87
ATOM     87  O   UNL     1     -10.126 -15.525  11.918  1.00  0.00    -0.394 OA
ATOM     88  H   UNL     1      -9.363 -16.101  11.712  1.00  0.00    +0.210 HD
ENDBRANCH  86  87
ENDBRANCH  64  86
BRANCH  65  89
ATOM     89  O   UNL     1      -7.250 -15.904  11.725  1.00  0.00    -0.388 OA
ATOM     90  H   UNL     1      -6.311 -16.159  11.832  1.00  0.00    +0.211 HD
ENDBRANCH  65  89
ENDBRANCH  59  60
ENDBRANCH   5  59
BRANCH   4  91
ATOM     91  N   UNL     1      -6.588  -9.118   7.651  1.00  0.00    -0.321 NA
ATOM     92  H   UNL     1      -6.895  -9.842   6.997  1.00  0.00    +0.119 HD
ATOM     93  H   UNL     1      -5.594  -8.948   7.477  1.00  0.00    +0.119 HD
ENDBRANCH   4  91
TORSDOF 36
ENDMDL
