MODEL 1
REMARK VINA RESULT:    -6.767      0.000      0.000
REMARK INTER + INTRA:         -10.849
REMARK INTER:                  -9.931
REMARK INTRA:                  -0.918
REMARK UNBOUND:                -0.918
REMARK SMILES O=S(=O)(O)OC[C@@H]1O[C@H](O[C@H]2[C@@H]3OC[C@H]2O[C@@H](O)[C@H]3O)[C@@H](O)[C@H](O)[C@@H]1O
REMARK SMILES IDX 9 1 21 2 23 3 25 4 7 5 8 6 10 7 11 8 14 9 15 10 13 11 16 12
REMARK SMILES IDX 12 13 17 14 19 15 18 16 20 18 22 20 24 22 6 24 5 25 2 26
REMARK SMILES IDX 1 27 3 28 4 29 26 31
REMARK H PARENT 18 17 20 19 22 21 24 23 4 30 26 32
ROOT
ATOM      1  C   UNL     1     -11.337  -3.909  -1.642  1.00  0.00    +0.282 C 
ATOM      2  C   UNL     1      -9.930  -4.153  -2.222  1.00  0.00    +0.202 C 
ATOM      3  C   UNL     1      -9.189  -5.094  -1.287  1.00  0.00    +0.179 C 
ATOM      4  C   UNL     1      -9.893  -6.453  -1.275  1.00  0.00    +0.177 C 
ATOM      5  C   UNL     1     -11.434  -6.334  -1.362  1.00  0.00    +0.180 C 
ATOM      6  O   UNL     1     -11.906  -5.031  -0.970  1.00  0.00    -0.341 OA
ENDROOT
BRANCH   1   7
ATOM      7  O   UNL     1     -12.163  -3.406  -2.696  1.00  0.00    -0.341 OA
BRANCH   7   8
ATOM      8  C   UNL     1     -12.417  -2.009  -2.584  1.00  0.00    +0.184 C 
ATOM      9  C   UNL     1     -13.537  -0.167  -1.665  1.00  0.00    +0.195 C 
ATOM     10  C   UNL     1     -13.118  -1.592  -1.300  1.00  0.00    +0.179 C 
ATOM     11  O   UNL     1     -13.808  -0.186  -3.090  1.00  0.00    -0.370 OA
ATOM     12  O   UNL     1     -14.232  -2.461  -1.030  1.00  0.00    -0.342 OA
ATOM     13  C   UNL     1     -13.487  -1.522  -3.555  1.00  0.00    +0.184 C 
ATOM     14  C   UNL     1     -15.252  -2.505  -2.022  1.00  0.00    +0.279 C 
ATOM     15  C   UNL     1     -14.726  -2.424  -3.472  1.00  0.00    +0.202 C 
BRANCH  14  16
ATOM     16  O   UNL     1     -16.180  -1.453  -1.770  1.00  0.00    -0.366 OA
ATOM     17  H   UNL     1     -16.002  -1.184  -0.852  1.00  0.00    +0.213 HD
ENDBRANCH  14  16
BRANCH  15  18
ATOM     18  O   UNL     1     -15.747  -1.948  -4.359  1.00  0.00    -0.385 OA
ATOM     19  H   UNL     1     -16.584  -2.213  -3.921  1.00  0.00    +0.211 HD
ENDBRANCH  15  18
ENDBRANCH   7   8
ENDBRANCH   1   7
BRANCH   2  20
ATOM     20  O   UNL     1      -9.190  -2.925  -2.340  1.00  0.00    -0.385 OA
ATOM     21  H   UNL     1      -9.842  -2.239  -2.583  1.00  0.00    +0.211 HD
ENDBRANCH   2  20
BRANCH   3  22
ATOM     22  O   UNL     1      -7.831  -5.269  -1.725  1.00  0.00    -0.387 OA
ATOM     23  H   UNL     1      -7.312  -5.363  -0.898  1.00  0.00    +0.211 HD
ENDBRANCH   3  22
BRANCH   5  24
ATOM     24  C   UNL     1     -12.049  -6.790  -2.697  1.00  0.00    +0.220 C 
BRANCH  24  25
ATOM     25  O   UNL     1     -11.864  -8.197  -2.824  1.00  0.00    -0.245 OA
BRANCH  25  26
ATOM     26  S   UNL     1     -12.444  -8.921  -4.157  1.00  0.00    +0.397 S 
ATOM     27  O   UNL     1     -12.636  -7.944  -5.205  1.00  0.00    -0.169 OA
ATOM     28  O   UNL     1     -13.488  -9.837  -3.758  1.00  0.00    -0.169 OA
BRANCH  26  29
ATOM     29  O   UNL     1     -11.213  -9.864  -4.587  1.00  0.00    -0.264 OA
ATOM     30  H   UNL     1     -10.628  -9.326  -5.159  1.00  0.00    +0.236 HD
ENDBRANCH  26  29
ENDBRANCH  25  26
ENDBRANCH  24  25
ENDBRANCH   5  24
BRANCH   4  31
ATOM     31  O   UNL     1      -9.370  -7.262  -2.334  1.00  0.00    -0.387 OA
ATOM     32  H   UNL     1      -9.965  -8.044  -2.370  1.00  0.00    +0.211 HD
ENDBRANCH   4  31
TORSDOF 11
ENDMDL
MODEL 2
REMARK VINA RESULT:    -6.671      4.357      6.466
REMARK INTER + INTRA:         -10.709
REMARK INTER:                  -9.457
REMARK INTRA:                  -1.252
REMARK UNBOUND:                -0.918
REMARK SMILES O=S(=O)(O)OC[C@@H]1O[C@H](O[C@H]2[C@@H]3OC[C@H]2O[C@@H](O)[C@H]3O)[C@@H](O)[C@H](O)[C@@H]1O
REMARK SMILES IDX 9 1 21 2 23 3 25 4 7 5 8 6 10 7 11 8 14 9 15 10 13 11 16 12
REMARK SMILES IDX 12 13 17 14 19 15 18 16 20 18 22 20 24 22 6 24 5 25 2 26
REMARK SMILES IDX 1 27 3 28 4 29 26 31
REMARK H PARENT 18 17 20 19 22 21 24 23 4 30 26 32
ROOT
ATOM      1  C   UNL     1     -10.108  -5.909  -0.829  1.00  0.00    +0.282 C 
ATOM      2  C   UNL     1      -8.794  -5.249  -1.288  1.00  0.00    +0.202 C 
ATOM      3  C   UNL     1      -8.258  -4.411  -0.139  1.00  0.00    +0.179 C 
ATOM      4  C   UNL     1      -7.896  -5.329   1.031  1.00  0.00    +0.177 C 
ATOM      5  C   UNL     1      -8.876  -6.516   1.192  1.00  0.00    +0.180 C 
ATOM      6  O   UNL     1     -10.142  -6.272   0.550  1.00  0.00    -0.341 OA
ENDROOT
BRANCH   1   7
ATOM      7  O   UNL     1     -10.376  -7.007  -1.706  1.00  0.00    -0.341 OA
BRANCH   7   8
ATOM      8  C   UNL     1     -11.755  -7.133  -2.033  1.00  0.00    +0.184 C 
ATOM      9  C   UNL     1     -13.821  -8.239  -1.948  1.00  0.00    +0.195 C 
ATOM     10  C   UNL     1     -12.541  -8.069  -1.127  1.00  0.00    +0.179 C 
ATOM     11  O   UNL     1     -13.412  -8.168  -3.338  1.00  0.00    -0.370 OA
ATOM     12  O   UNL     1     -11.823  -9.300  -0.931  1.00  0.00    -0.342 OA
ATOM     13  C   UNL     1     -11.988  -7.888  -3.337  1.00  0.00    +0.184 C 
ATOM     14  C   UNL     1     -11.539 -10.057  -2.103  1.00  0.00    +0.279 C 
ATOM     15  C   UNL     1     -11.191  -9.199  -3.340  1.00  0.00    +0.202 C 
BRANCH  14  16
ATOM     16  O   UNL     1     -12.652 -10.903  -2.382  1.00  0.00    -0.366 OA
ATOM     17  H   UNL     1     -12.269 -11.660  -2.860  1.00  0.00    +0.213 HD
ENDBRANCH  14  16
BRANCH  15  18
ATOM     18  O   UNL     1     -11.435  -9.928  -4.550  1.00  0.00    -0.385 OA
ATOM     19  H   UNL     1     -10.958  -9.413  -5.236  1.00  0.00    +0.211 HD
ENDBRANCH  15  18
ENDBRANCH   7   8
ENDBRANCH   1   7
BRANCH   2  20
ATOM     20  O   UNL     1      -9.002  -4.403  -2.432  1.00  0.00    -0.385 OA
ATOM     21  H   UNL     1      -8.501  -3.583  -2.257  1.00  0.00    +0.211 HD
ENDBRANCH   2  20
BRANCH   3  22
ATOM     22  O   UNL     1      -7.088  -3.685  -0.552  1.00  0.00    -0.387 OA
ATOM     23  H   UNL     1      -6.637  -4.278  -1.188  1.00  0.00    +0.211 HD
ENDBRANCH   3  22
BRANCH   5  24
ATOM     24  C   UNL     1      -8.300  -7.893   0.818  1.00  0.00    +0.220 C 
BRANCH  24  25
ATOM     25  O   UNL     1      -7.735  -8.480   1.988  1.00  0.00    -0.245 OA
BRANCH  25  26
ATOM     26  S   UNL     1      -6.418  -9.412   1.808  1.00  0.00    +0.397 S 
ATOM     27  O   UNL     1      -6.772 -10.644   1.141  1.00  0.00    -0.169 OA
ATOM     28  O   UNL     1      -5.675  -9.393   3.048  1.00  0.00    -0.169 OA
BRANCH  26  29
ATOM     29  O   UNL     1      -5.531  -8.541   0.785  1.00  0.00    -0.264 OA
ATOM     30  H   UNL     1      -5.024  -7.899   1.323  1.00  0.00    +0.236 HD
ENDBRANCH  26  29
ENDBRANCH  25  26
ENDBRANCH  24  25
ENDBRANCH   5  24
BRANCH   4  31
ATOM     31  O   UNL     1      -6.547  -5.782   0.871  1.00  0.00    -0.387 OA
ATOM     32  H   UNL     1      -5.999  -4.969   0.941  1.00  0.00    +0.211 HD
ENDBRANCH   4  31
TORSDOF 11
ENDMDL
MODEL 3
REMARK VINA RESULT:    -6.528      2.549      6.913
REMARK INTER + INTRA:         -10.498
REMARK INTER:                  -9.479
REMARK INTRA:                  -1.019
REMARK UNBOUND:                -0.918
REMARK SMILES O=S(=O)(O)OC[C@@H]1O[C@H](O[C@H]2[C@@H]3OC[C@H]2O[C@@H](O)[C@H]3O)[C@@H](O)[C@H](O)[C@@H]1O
REMARK SMILES IDX 9 1 21 2 23 3 25 4 7 5 8 6 10 7 11 8 14 9 15 10 13 11 16 12
REMARK SMILES IDX 12 13 17 14 19 15 18 16 20 18 22 20 24 22 6 24 5 25 2 26
REMARK SMILES IDX 1 27 3 28 4 29 26 31
REMARK H PARENT 18 17 20 19 22 21 24 23 4 30 26 32
ROOT
ATOM      1  C   UNL     1     -12.957  -5.026  -1.486  1.00  0.00    +0.282 C 
ATOM      2  C   UNL     1     -13.590  -4.611  -2.828  1.00  0.00    +0.202 C 
ATOM      3  C   UNL     1     -14.251  -3.256  -2.641  1.00  0.00    +0.179 C 
ATOM      4  C   UNL     1     -13.178  -2.209  -2.326  1.00  0.00    +0.177 C 
ATOM      5  C   UNL     1     -12.040  -2.762  -1.435  1.00  0.00    +0.180 C 
ATOM      6  O   UNL     1     -12.433  -3.946  -0.716  1.00  0.00    -0.341 OA
ENDROOT
BRANCH   1   7
ATOM      7  O   UNL     1     -11.990  -6.046  -1.754  1.00  0.00    -0.341 OA
BRANCH   7   8
ATOM      8  C   UNL     1     -12.093  -7.156  -0.870  1.00  0.00    +0.184 C 
ATOM      9  C   UNL     1     -11.336  -8.467   0.921  1.00  0.00    +0.195 C 
ATOM     10  C   UNL     1     -11.286  -7.025   0.413  1.00  0.00    +0.179 C 
ATOM     11  O   UNL     1     -11.357  -9.303  -0.265  1.00  0.00    -0.370 OA
ATOM     12  O   UNL     1      -9.952  -6.568   0.123  1.00  0.00    -0.342 OA
ATOM     13  C   UNL     1     -11.402  -8.406  -1.404  1.00  0.00    +0.184 C 
ATOM     14  C   UNL     1      -9.174  -7.399  -0.731  1.00  0.00    +0.279 C 
ATOM     15  C   UNL     1      -9.979  -8.067  -1.868  1.00  0.00    +0.202 C 
BRANCH  14  16
ATOM     16  O   UNL     1      -8.523  -8.389   0.063  1.00  0.00    -0.366 OA
ATOM     17  H   UNL     1      -9.222  -8.729   0.650  1.00  0.00    +0.213 HD
ENDBRANCH  14  16
BRANCH  15  18
ATOM     18  O   UNL     1      -9.315  -9.246  -2.339  1.00  0.00    -0.385 OA
ATOM     19  H   UNL     1      -9.674  -9.375  -3.243  1.00  0.00    +0.211 HD
ENDBRANCH  15  18
ENDBRANCH   7   8
ENDBRANCH   1   7
BRANCH   2  20
ATOM     20  O   UNL     1     -14.578  -5.563  -3.259  1.00  0.00    -0.385 OA
ATOM     21  H   UNL     1     -14.091  -6.388  -3.455  1.00  0.00    +0.211 HD
ENDBRANCH   2  20
BRANCH   3  22
ATOM     22  O   UNL     1     -14.951  -2.871  -3.836  1.00  0.00    -0.387 OA
ATOM     23  H   UNL     1     -15.900  -2.991  -3.619  1.00  0.00    +0.211 HD
ENDBRANCH   3  22
BRANCH   5  24
ATOM     24  C   UNL     1     -10.686  -2.945  -2.145  1.00  0.00    +0.220 C 
BRANCH  24  25
ATOM     25  O   UNL     1      -9.826  -3.696  -1.292  1.00  0.00    -0.245 OA
BRANCH  25  26
ATOM     26  S   UNL     1      -8.363  -3.077  -0.956  1.00  0.00    +0.397 S 
ATOM     27  O   UNL     1      -7.604  -4.009  -0.154  1.00  0.00    -0.169 OA
ATOM     28  O   UNL     1      -8.533  -1.693  -0.575  1.00  0.00    -0.169 OA
BRANCH  26  29
ATOM     29  O   UNL     1      -7.683  -3.019  -2.414  1.00  0.00    -0.264 OA
ATOM     30  H   UNL     1      -6.749  -3.291  -2.304  1.00  0.00    +0.236 HD
ENDBRANCH  26  29
ENDBRANCH  25  26
ENDBRANCH  24  25
ENDBRANCH   5  24
BRANCH   4  31
ATOM     31  O   UNL     1     -12.670  -1.675  -3.554  1.00  0.00    -0.387 OA
ATOM     32  H   UNL     1     -13.332  -1.933  -4.234  1.00  0.00    +0.211 HD
ENDBRANCH   4  31
TORSDOF 11
ENDMDL
MODEL 4
REMARK VINA RESULT:    -6.387      2.427      6.397
REMARK INTER + INTRA:         -10.292
REMARK INTER:                  -9.311
REMARK INTRA:                  -0.981
REMARK UNBOUND:                -0.918
REMARK SMILES O=S(=O)(O)OC[C@@H]1O[C@H](O[C@H]2[C@@H]3OC[C@H]2O[C@@H](O)[C@H]3O)[C@@H](O)[C@H](O)[C@@H]1O
REMARK SMILES IDX 9 1 21 2 23 3 25 4 7 5 8 6 10 7 11 8 14 9 15 10 13 11 16 12
REMARK SMILES IDX 12 13 17 14 19 15 18 16 20 18 22 20 24 22 6 24 5 25 2 26
REMARK SMILES IDX 1 27 3 28 4 29 26 31
REMARK H PARENT 18 17 20 19 22 21 24 23 4 30 26 32
ROOT
ATOM      1  C   UNL     1     -11.146  -6.059  -2.597  1.00  0.00    +0.282 C 
ATOM      2  C   UNL     1     -10.546  -5.658  -1.235  1.00  0.00    +0.202 C 
ATOM      3  C   UNL     1      -9.527  -4.557  -1.472  1.00  0.00    +0.179 C 
ATOM      4  C   UNL     1     -10.242  -3.314  -2.012  1.00  0.00    +0.177 C 
ATOM      5  C   UNL     1     -11.403  -3.658  -2.974  1.00  0.00    +0.180 C 
ATOM      6  O   UNL     1     -11.285  -4.984  -3.525  1.00  0.00    -0.341 OA
ENDROOT
BRANCH   1   7
ATOM      7  O   UNL     1     -12.374  -6.749  -2.348  1.00  0.00    -0.341 OA
BRANCH   7   8
ATOM      8  C   UNL     1     -13.155  -6.934  -3.524  1.00  0.00    +0.184 C 
ATOM      9  C   UNL     1     -14.785  -8.053  -4.783  1.00  0.00    +0.195 C 
ATOM     10  C   UNL     1     -14.412  -7.768  -3.327  1.00  0.00    +0.179 C 
ATOM     11  O   UNL     1     -13.529  -8.140  -5.504  1.00  0.00    -0.370 OA
ATOM     12  O   UNL     1     -14.114  -8.956  -2.573  1.00  0.00    -0.342 OA
ATOM     13  C   UNL     1     -12.481  -7.840  -4.547  1.00  0.00    +0.184 C 
ATOM     14  C   UNL     1     -13.156  -9.842  -3.144  1.00  0.00    +0.279 C 
ATOM     15  C   UNL     1     -11.995  -9.131  -3.872  1.00  0.00    +0.202 C 
BRANCH  14  16
ATOM     16  O   UNL     1     -13.829 -10.731  -4.031  1.00  0.00    -0.366 OA
ATOM     17  H   UNL     1     -14.048 -10.184  -4.806  1.00  0.00    +0.213 HD
ENDBRANCH  14  16
BRANCH  15  18
ATOM     18  O   UNL     1     -11.391 -10.000  -4.839  1.00  0.00    -0.385 OA
ATOM     19  H   UNL     1     -12.106 -10.632  -5.069  1.00  0.00    +0.211 HD
ENDBRANCH  15  18
ENDBRANCH   7   8
ENDBRANCH   1   7
BRANCH   2  20
ATOM     20  O   UNL     1      -9.897  -6.773  -0.600  1.00  0.00    -0.385 OA
ATOM     21  H   UNL     1      -8.940  -6.659  -0.764  1.00  0.00    +0.211 HD
ENDBRANCH   2  20
BRANCH   3  22
ATOM     22  O   UNL     1      -8.857  -4.221  -0.245  1.00  0.00    -0.387 OA
ATOM     23  H   UNL     1      -8.630  -3.272  -0.335  1.00  0.00    +0.211 HD
ENDBRANCH   3  22
BRANCH   5  24
ATOM     24  C   UNL     1     -12.814  -3.392  -2.416  1.00  0.00    +0.220 C 
BRANCH  24  25
ATOM     25  O   UNL     1     -13.110  -2.007  -2.578  1.00  0.00    -0.245 OA
BRANCH  25  26
ATOM     26  S   UNL     1     -13.764  -1.221  -1.317  1.00  0.00    +0.397 S 
ATOM     27  O   UNL     1     -13.402   0.177  -1.366  1.00  0.00    -0.169 OA
ATOM     28  O   UNL     1     -13.572  -2.026  -0.132  1.00  0.00    -0.169 OA
BRANCH  26  29
ATOM     29  O   UNL     1     -15.338  -1.330  -1.636  1.00  0.00    -0.264 OA
ATOM     30  H   UNL     1     -15.739  -0.472  -1.388  1.00  0.00    +0.236 HD
ENDBRANCH  26  29
ENDBRANCH  25  26
ENDBRANCH  24  25
ENDBRANCH   5  24
BRANCH   4  31
ATOM     31  O   UNL     1     -10.692  -2.517  -0.911  1.00  0.00    -0.387 OA
ATOM     32  H   UNL     1     -10.057  -1.767  -0.867  1.00  0.00    +0.211 HD
ENDBRANCH   4  31
TORSDOF 11
ENDMDL
MODEL 5
REMARK VINA RESULT:    -6.143      8.867     12.218
REMARK INTER + INTRA:          -9.934
REMARK INTER:                  -8.690
REMARK INTRA:                  -1.245
REMARK UNBOUND:                -0.918
REMARK SMILES O=S(=O)(O)OC[C@@H]1O[C@H](O[C@H]2[C@@H]3OC[C@H]2O[C@@H](O)[C@H]3O)[C@@H](O)[C@H](O)[C@@H]1O
REMARK SMILES IDX 9 1 21 2 23 3 25 4 7 5 8 6 10 7 11 8 14 9 15 10 13 11 16 12
REMARK SMILES IDX 12 13 17 14 19 15 18 16 20 18 22 20 24 22 6 24 5 25 2 26
REMARK SMILES IDX 1 27 3 28 4 29 26 31
REMARK H PARENT 18 17 20 19 22 21 24 23 4 30 26 32
ROOT
ATOM      1  C   UNL     1      -5.549 -11.222   4.469  1.00  0.00    +0.282 C 
ATOM      2  C   UNL     1      -4.374 -10.338   4.009  1.00  0.00    +0.202 C 
ATOM      3  C   UNL     1      -4.114 -10.622   2.539  1.00  0.00    +0.179 C 
ATOM      4  C   UNL     1      -5.330 -10.188   1.717  1.00  0.00    +0.177 C 
ATOM      5  C   UNL     1      -6.672 -10.455   2.439  1.00  0.00    +0.180 C 
ATOM      6  O   UNL     1      -6.549 -11.446   3.477  1.00  0.00    -0.341 OA
ENDROOT
BRANCH   1   7
ATOM      7  O   UNL     1      -6.071 -10.661   5.677  1.00  0.00    -0.341 OA
BRANCH   7   8
ATOM      8  C   UNL     1      -7.002 -11.519   6.330  1.00  0.00    +0.184 C 
ATOM      9  C   UNL     1      -8.761 -11.925   7.824  1.00  0.00    +0.195 C 
ATOM     10  C   UNL     1      -8.199 -10.809   6.943  1.00  0.00    +0.179 C 
ATOM     11  O   UNL     1      -7.614 -12.694   8.269  1.00  0.00    -0.370 OA
ATOM     12  O   UNL     1      -7.772  -9.655   7.688  1.00  0.00    -0.342 OA
ATOM     13  C   UNL     1      -6.451 -12.117   7.620  1.00  0.00    +0.184 C 
ATOM     14  C   UNL     1      -6.881  -9.898   8.771  1.00  0.00    +0.279 C 
ATOM     15  C   UNL     1      -5.847 -11.014   8.499  1.00  0.00    +0.202 C 
BRANCH  14  16
ATOM     16  O   UNL     1      -7.647 -10.204   9.933  1.00  0.00    -0.366 OA
ATOM     17  H   UNL     1      -7.174  -9.761  10.661  1.00  0.00    +0.213 HD
ENDBRANCH  14  16
BRANCH  15  18
ATOM     18  O   UNL     1      -5.360 -11.568   9.728  1.00  0.00    -0.385 OA
ATOM     19  H   UNL     1      -5.165 -10.781  10.282  1.00  0.00    +0.211 HD
ENDBRANCH  15  18
ENDBRANCH   7   8
ENDBRANCH   1   7
BRANCH   2  20
ATOM     20  O   UNL     1      -3.181 -10.616   4.762  1.00  0.00    -0.385 OA
ATOM     21  H   UNL     1      -2.441 -10.238   4.246  1.00  0.00    +0.211 HD
ENDBRANCH   2  20
BRANCH   3  22
ATOM     22  O   UNL     1      -2.955  -9.902   2.086  1.00  0.00    -0.387 OA
ATOM     23  H   UNL     1      -2.216 -10.543   2.162  1.00  0.00    +0.211 HD
ENDBRANCH   3  22
BRANCH   5  24
ATOM     24  C   UNL     1      -7.409  -9.197   2.933  1.00  0.00    +0.220 C 
BRANCH  24  25
ATOM     25  O   UNL     1      -8.148  -8.649   1.844  1.00  0.00    -0.245 OA
BRANCH  25  26
ATOM     26  S   UNL     1      -8.189  -7.033   1.693  1.00  0.00    +0.397 S 
ATOM     27  O   UNL     1      -9.535  -6.598   1.395  1.00  0.00    -0.169 OA
ATOM     28  O   UNL     1      -7.053  -6.623   0.899  1.00  0.00    -0.169 OA
BRANCH  26  29
ATOM     29  O   UNL     1      -7.839  -6.549   3.189  1.00  0.00    -0.264 OA
ATOM     30  H   UNL     1      -6.864  -6.553   3.269  1.00  0.00    +0.236 HD
ENDBRANCH  26  29
ENDBRANCH  25  26
ENDBRANCH  24  25
ENDBRANCH   5  24
BRANCH   4  31
ATOM     31  O   UNL     1      -5.190  -8.807   1.366  1.00  0.00    -0.387 OA
ATOM     32  H   UNL     1      -6.075  -8.413   1.536  1.00  0.00    +0.211 HD
ENDBRANCH   4  31
TORSDOF 11
ENDMDL
MODEL 6
REMARK VINA RESULT:    -5.967      5.281      9.814
REMARK INTER + INTRA:          -9.676
REMARK INTER:                  -8.728
REMARK INTRA:                  -0.948
REMARK UNBOUND:                -0.918
REMARK SMILES O=S(=O)(O)OC[C@@H]1O[C@H](O[C@H]2[C@@H]3OC[C@H]2O[C@@H](O)[C@H]3O)[C@@H](O)[C@H](O)[C@@H]1O
REMARK SMILES IDX 9 1 21 2 23 3 25 4 7 5 8 6 10 7 11 8 14 9 15 10 13 11 16 12
REMARK SMILES IDX 12 13 17 14 19 15 18 16 20 18 22 20 24 22 6 24 5 25 2 26
REMARK SMILES IDX 1 27 3 28 4 29 26 31
REMARK H PARENT 18 17 20 19 22 21 24 23 4 30 26 32
ROOT
ATOM      1  C   UNL     1      -8.862  -8.873   1.225  1.00  0.00    +0.282 C 
ATOM      2  C   UNL     1      -8.606  -9.274  -0.240  1.00  0.00    +0.202 C 
ATOM      3  C   UNL     1      -9.762  -8.762  -1.081  1.00  0.00    +0.179 C 
ATOM      4  C   UNL     1      -9.774  -7.231  -1.047  1.00  0.00    +0.177 C 
ATOM      5  C   UNL     1      -9.367  -6.656   0.331  1.00  0.00    +0.180 C 
ATOM      6  O   UNL     1      -9.518  -7.618   1.393  1.00  0.00    -0.341 OA
ENDROOT
BRANCH   1   7
ATOM      7  O   UNL     1      -7.617  -8.954   1.925  1.00  0.00    -0.341 OA
BRANCH   7   8
ATOM      8  C   UNL     1      -7.545 -10.074   2.802  1.00  0.00    +0.184 C 
ATOM      9  C   UNL     1      -6.667 -11.213   4.653  1.00  0.00    +0.195 C 
ATOM     10  C   UNL     1      -6.896  -9.788   4.147  1.00  0.00    +0.179 C 
ATOM     11  O   UNL     1      -6.405 -12.015   3.472  1.00  0.00    -0.370 OA
ATOM     12  O   UNL     1      -5.677  -9.044   3.969  1.00  0.00    -0.342 OA
ATOM     13  C   UNL     1      -6.553 -11.132   2.331  1.00  0.00    +0.184 C 
ATOM     14  C   UNL     1      -4.666  -9.669   3.186  1.00  0.00    +0.279 C 
ATOM     15  C   UNL     1      -5.207 -10.480   1.987  1.00  0.00    +0.202 C 
BRANCH  14  16
ATOM     16  O   UNL     1      -3.881 -10.503   4.035  1.00  0.00    -0.366 OA
ATOM     17  H   UNL     1      -3.323  -9.883   4.538  1.00  0.00    +0.213 HD
ENDBRANCH  14  16
BRANCH  15  18
ATOM     18  O   UNL     1      -4.261 -11.476   1.577  1.00  0.00    -0.385 OA
ATOM     19  H   UNL     1      -4.341 -12.174   2.262  1.00  0.00    +0.211 HD
ENDBRANCH  15  18
ENDBRANCH   7   8
ENDBRANCH   1   7
BRANCH   2  20
ATOM     20  O   UNL     1      -8.512 -10.701  -0.386  1.00  0.00    -0.385 OA
ATOM     21  H   UNL     1      -8.354 -10.867  -1.336  1.00  0.00    +0.211 HD
ENDBRANCH   2  20
BRANCH   3  22
ATOM     22  O   UNL     1      -9.627  -9.204  -2.442  1.00  0.00    -0.387 OA
ATOM     23  H   UNL     1      -9.393 -10.153  -2.375  1.00  0.00    +0.211 HD
ENDBRANCH   3  22
BRANCH   5  24
ATOM     24  C   UNL     1      -7.990  -5.969   0.371  1.00  0.00    +0.220 C 
BRANCH  24  25
ATOM     25  O   UNL     1      -8.186  -4.571   0.570  1.00  0.00    -0.245 OA
BRANCH  25  26
ATOM     26  S   UNL     1      -8.390  -3.641  -0.745  1.00  0.00    +0.397 S 
ATOM     27  O   UNL     1      -7.721  -4.236  -1.879  1.00  0.00    -0.169 OA
ATOM     28  O   UNL     1      -8.180  -2.263  -0.362  1.00  0.00    -0.169 OA
BRANCH  26  29
ATOM     29  O   UNL     1      -9.976  -3.760  -0.995  1.00  0.00    -0.264 OA
ATOM     30  H   UNL     1     -10.103  -3.892  -1.956  1.00  0.00    +0.236 HD
ENDBRANCH  26  29
ENDBRANCH  25  26
ENDBRANCH  24  25
ENDBRANCH   5  24
BRANCH   4  31
ATOM     31  O   UNL     1      -8.931  -6.732  -2.092  1.00  0.00    -0.387 OA
ATOM     32  H   UNL     1      -9.420  -5.964  -2.463  1.00  0.00    +0.211 HD
ENDBRANCH   4  31
TORSDOF 11
ENDMDL
MODEL 7
REMARK VINA RESULT:    -5.857      5.086      9.366
REMARK INTER + INTRA:          -9.514
REMARK INTER:                  -8.224
REMARK INTRA:                  -1.290
REMARK UNBOUND:                -0.918
REMARK SMILES O=S(=O)(O)OC[C@@H]1O[C@H](O[C@H]2[C@@H]3OC[C@H]2O[C@@H](O)[C@H]3O)[C@@H](O)[C@H](O)[C@@H]1O
REMARK SMILES IDX 9 1 21 2 23 3 25 4 7 5 8 6 10 7 11 8 14 9 15 10 13 11 16 12
REMARK SMILES IDX 12 13 17 14 19 15 18 16 20 18 22 20 24 22 6 24 5 25 2 26
REMARK SMILES IDX 1 27 3 28 4 29 26 31
REMARK H PARENT 18 17 20 19 22 21 24 23 4 30 26 32
ROOT
ATOM      1  C   UNL     1      -9.781  -9.801   0.798  1.00  0.00    +0.282 C 
ATOM      2  C   UNL     1      -9.704 -10.178  -0.694  1.00  0.00    +0.202 C 
ATOM      3  C   UNL     1     -10.828  -9.462  -1.423  1.00  0.00    +0.179 C 
ATOM      4  C   UNL     1     -10.598  -7.950  -1.347  1.00  0.00    +0.177 C 
ATOM      5  C   UNL     1     -10.002  -7.499   0.008  1.00  0.00    +0.180 C 
ATOM      6  O   UNL     1     -10.219  -8.467   1.052  1.00  0.00    -0.341 OA
ENDROOT
BRANCH   1   7
ATOM      7  O   UNL     1      -8.514 -10.099   1.391  1.00  0.00    -0.341 OA
BRANCH   7   8
ATOM      8  C   UNL     1      -8.328  -9.465   2.652  1.00  0.00    +0.184 C 
ATOM      9  C   UNL     1      -6.989  -8.516   4.326  1.00  0.00    +0.195 C 
ATOM     10  C   UNL     1      -6.996  -8.750   2.814  1.00  0.00    +0.179 C 
ATOM     11  O   UNL     1      -7.689  -9.648   4.905  1.00  0.00    -0.370 OA
ATOM     12  O   UNL     1      -5.917  -9.589   2.363  1.00  0.00    -0.342 OA
ATOM     13  C   UNL     1      -8.154 -10.458   3.795  1.00  0.00    +0.184 C 
ATOM     14  C   UNL     1      -5.763 -10.834   3.036  1.00  0.00    +0.279 C 
ATOM     15  C   UNL     1      -7.097 -11.509   3.427  1.00  0.00    +0.202 C 
BRANCH  14  16
ATOM     16  O   UNL     1      -4.952 -10.633   4.190  1.00  0.00    -0.366 OA
ATOM     17  H   UNL     1      -5.351  -9.866   4.639  1.00  0.00    +0.213 HD
ENDBRANCH  14  16
BRANCH  15  18
ATOM     18  O   UNL     1      -6.906 -12.424   4.513  1.00  0.00    -0.385 OA
ATOM     19  H   UNL     1      -6.492 -11.876   5.215  1.00  0.00    +0.211 HD
ENDBRANCH  15  18
ENDBRANCH   7   8
ENDBRANCH   1   7
BRANCH   2  20
ATOM     20  O   UNL     1      -9.845 -11.596  -0.885  1.00  0.00    -0.385 OA
ATOM     21  H   UNL     1      -9.404 -12.017  -0.121  1.00  0.00    +0.211 HD
ENDBRANCH   2  20
BRANCH   3  22
ATOM     22  O   UNL     1     -10.868  -9.866  -2.803  1.00  0.00    -0.387 OA
ATOM     23  H   UNL     1     -11.575  -9.318  -3.203  1.00  0.00    +0.211 HD
ENDBRANCH   3  22
BRANCH   5  24
ATOM     24  C   UNL     1      -8.535  -7.034  -0.047  1.00  0.00    +0.220 C 
BRANCH  24  25
ATOM     25  O   UNL     1      -8.491  -5.640   0.252  1.00  0.00    -0.245 OA
BRANCH  25  26
ATOM     26  S   UNL     1      -8.487  -4.599  -0.994  1.00  0.00    +0.397 S 
ATOM     27  O   UNL     1      -7.731  -3.417  -0.646  1.00  0.00    -0.169 OA
ATOM     28  O   UNL     1      -9.827  -4.527  -1.530  1.00  0.00    -0.169 OA
BRANCH  26  29
ATOM     29  O   UNL     1      -7.645  -5.408  -2.102  1.00  0.00    -0.264 OA
ATOM     30  H   UNL     1      -8.158  -6.213  -2.318  1.00  0.00    +0.236 HD
ENDBRANCH  26  29
ENDBRANCH  25  26
ENDBRANCH  24  25
ENDBRANCH   5  24
BRANCH   4  31
ATOM     31  O   UNL     1      -9.770  -7.546  -2.443  1.00  0.00    -0.387 OA
ATOM     32  H   UNL     1      -9.263  -6.774  -2.104  1.00  0.00    +0.211 HD
ENDBRANCH   4  31
TORSDOF 11
ENDMDL
MODEL 8
REMARK VINA RESULT:    -5.733     27.761     29.901
REMARK INTER + INTRA:          -9.332
REMARK INTER:                  -8.268
REMARK INTRA:                  -1.064
REMARK UNBOUND:                -0.918
REMARK SMILES O=S(=O)(O)OC[C@@H]1O[C@H](O[C@H]2[C@@H]3OC[C@H]2O[C@@H](O)[C@H]3O)[C@@H](O)[C@H](O)[C@@H]1O
REMARK SMILES IDX 9 1 21 2 23 3 25 4 7 5 8 6 10 7 11 8 14 9 15 10 13 11 16 12
REMARK SMILES IDX 12 13 17 14 19 15 18 16 20 18 22 20 24 22 6 24 5 25 2 26
REMARK SMILES IDX 1 27 3 28 4 29 26 31
REMARK H PARENT 18 17 20 19 22 21 24 23 4 30 26 32
ROOT
ATOM      1  C   UNL     1       5.545  10.857  16.407  1.00  0.00    +0.282 C 
ATOM      2  C   UNL     1       6.431   9.606  16.248  1.00  0.00    +0.202 C 
ATOM      3  C   UNL     1       7.393   9.554  17.422  1.00  0.00    +0.179 C 
ATOM      4  C   UNL     1       6.600   9.361  18.718  1.00  0.00    +0.177 C 
ATOM      5  C   UNL     1       5.253  10.123  18.719  1.00  0.00    +0.180 C 
ATOM      6  O   UNL     1       5.228  11.194  17.756  1.00  0.00    -0.341 OA
ENDROOT
BRANCH   1   7
ATOM      7  O   UNL     1       4.388  10.682  15.584  1.00  0.00    -0.341 OA
BRANCH   7   8
ATOM      8  C   UNL     1       3.746  11.910  15.260  1.00  0.00    +0.184 C 
ATOM      9  C   UNL     1       2.604  13.336  13.790  1.00  0.00    +0.195 C 
ATOM     10  C   UNL     1       2.819  11.845  14.056  1.00  0.00    +0.179 C 
ATOM     11  O   UNL     1       3.844  13.988  14.168  1.00  0.00    -0.370 OA
ATOM     12  O   UNL     1       3.459  11.159  12.965  1.00  0.00    -0.342 OA
ATOM     13  C   UNL     1       4.709  12.953  14.705  1.00  0.00    +0.184 C 
ATOM     14  C   UNL     1       4.668  11.734  12.481  1.00  0.00    +0.279 C 
ATOM     15  C   UNL     1       5.562  12.343  13.584  1.00  0.00    +0.202 C 
BRANCH  14  16
ATOM     16  O   UNL     1       4.347  12.718  11.502  1.00  0.00    -0.366 OA
ATOM     17  H   UNL     1       3.633  12.315  10.976  1.00  0.00    +0.213 HD
ENDBRANCH  14  16
BRANCH  15  18
ATOM     18  O   UNL     1       6.445  13.332  13.037  1.00  0.00    -0.385 OA
ATOM     19  H   UNL     1       5.862  13.884  12.473  1.00  0.00    +0.211 HD
ENDBRANCH  15  18
ENDBRANCH   7   8
ENDBRANCH   1   7
BRANCH   2  20
ATOM     20  O   UNL     1       7.183   9.647  15.023  1.00  0.00    -0.385 OA
ATOM     21  H   UNL     1       6.646   9.168  14.360  1.00  0.00    +0.211 HD
ENDBRANCH   2  20
BRANCH   3  22
ATOM     22  O   UNL     1       8.316   8.463  17.266  1.00  0.00    -0.387 OA
ATOM     23  H   UNL     1       9.201   8.861  17.411  1.00  0.00    +0.211 HD
ENDBRANCH   3  22
BRANCH   5  24
ATOM     24  C   UNL     1       4.000   9.233  18.620  1.00  0.00    +0.220 C 
BRANCH  24  25
ATOM     25  O   UNL     1       3.448   9.082  19.925  1.00  0.00    -0.245 OA
BRANCH  25  26
ATOM     26  S   UNL     1       3.563   7.625  20.632  1.00  0.00    +0.397 S 
ATOM     27  O   UNL     1       2.291   7.254  21.209  1.00  0.00    -0.169 OA
ATOM     28  O   UNL     1       4.794   7.584  21.388  1.00  0.00    -0.169 OA
BRANCH  26  29
ATOM     29  O   UNL     1       3.825   6.662  19.369  1.00  0.00    -0.264 OA
ATOM     30  H   UNL     1       4.779   6.724  19.156  1.00  0.00    +0.236 HD
ENDBRANCH  26  29
ENDBRANCH  25  26
ENDBRANCH  24  25
ENDBRANCH   5  24
BRANCH   4  31
ATOM     31  O   UNL     1       6.409   7.960  18.947  1.00  0.00    -0.387 OA
ATOM     32  H   UNL     1       5.528   7.894  19.379  1.00  0.00    +0.211 HD
ENDBRANCH   4  31
TORSDOF 11
ENDMDL
MODEL 9
REMARK VINA RESULT:    -5.687      2.504      6.349
REMARK INTER + INTRA:          -9.264
REMARK INTER:                  -8.032
REMARK INTRA:                  -1.233
REMARK UNBOUND:                -0.918
REMARK SMILES O=S(=O)(O)OC[C@@H]1O[C@H](O[C@H]2[C@@H]3OC[C@H]2O[C@@H](O)[C@H]3O)[C@@H](O)[C@H](O)[C@@H]1O
REMARK SMILES IDX 9 1 21 2 23 3 25 4 7 5 8 6 10 7 11 8 14 9 15 10 13 11 16 12
REMARK SMILES IDX 12 13 17 14 19 15 18 16 20 18 22 20 24 22 6 24 5 25 2 26
REMARK SMILES IDX 1 27 3 28 4 29 26 31
REMARK H PARENT 18 17 20 19 22 21 24 23 4 30 26 32
ROOT
ATOM      1  C   UNL     1     -11.169  -6.179  -2.411  1.00  0.00    +0.282 C 
ATOM      2  C   UNL     1     -10.588  -5.669  -1.078  1.00  0.00    +0.202 C 
ATOM      3  C   UNL     1      -9.487  -4.670  -1.391  1.00  0.00    +0.179 C 
ATOM      4  C   UNL     1     -10.094  -3.452  -2.094  1.00  0.00    +0.177 C 
ATOM      5  C   UNL     1     -11.244  -3.825  -3.060  1.00  0.00    +0.180 C 
ATOM      6  O   UNL     1     -11.201  -5.209  -3.456  1.00  0.00    -0.341 OA
ENDROOT
BRANCH   1   7
ATOM      7  O   UNL     1     -12.449  -6.755  -2.138  1.00  0.00    -0.341 OA
BRANCH   7   8
ATOM      8  C   UNL     1     -12.470  -8.169  -2.304  1.00  0.00    +0.184 C 
ATOM      9  C   UNL     1     -12.540 -10.108  -3.618  1.00  0.00    +0.195 C 
ATOM     10  C   UNL     1     -12.077  -8.653  -3.691  1.00  0.00    +0.179 C 
ATOM     11  O   UNL     1     -13.712 -10.108  -2.762  1.00  0.00    -0.370 OA
ATOM     12  O   UNL     1     -12.759  -7.888  -4.701  1.00  0.00    -0.342 OA
ATOM     13  C   UNL     1     -13.880  -8.747  -2.290  1.00  0.00    +0.184 C 
ATOM     14  C   UNL     1     -14.181  -7.932  -4.673  1.00  0.00    +0.279 C 
ATOM     15  C   UNL     1     -14.783  -7.961  -3.251  1.00  0.00    +0.202 C 
BRANCH  14  16
ATOM     16  O   UNL     1     -14.618  -9.065  -5.420  1.00  0.00    -0.366 OA
ATOM     17  H   UNL     1     -13.924  -9.733  -5.279  1.00  0.00    +0.213 HD
ENDBRANCH  14  16
BRANCH  15  18
ATOM     18  O   UNL     1     -16.102  -8.524  -3.266  1.00  0.00    -0.385 OA
ATOM     19  H   UNL     1     -15.948  -9.490  -3.185  1.00  0.00    +0.211 HD
ENDBRANCH  15  18
ENDBRANCH   7   8
ENDBRANCH   1   7
BRANCH   2  20
ATOM     20  O   UNL     1     -10.041  -6.745  -0.297  1.00  0.00    -0.385 OA
ATOM     21  H   UNL     1     -10.803  -7.188   0.126  1.00  0.00    +0.211 HD
ENDBRANCH   2  20
BRANCH   3  22
ATOM     22  O   UNL     1      -8.837  -4.244  -0.182  1.00  0.00    -0.387 OA
ATOM     23  H   UNL     1      -7.955  -4.671  -0.208  1.00  0.00    +0.211 HD
ENDBRANCH   3  22
BRANCH   5  24
ATOM     24  C   UNL     1     -12.650  -3.406  -2.593  1.00  0.00    +0.220 C 
BRANCH  24  25
ATOM     25  O   UNL     1     -12.831  -2.023  -2.890  1.00  0.00    -0.245 OA
BRANCH  25  26
ATOM     26  S   UNL     1     -13.676  -1.126  -1.832  1.00  0.00    +0.397 S 
ATOM     27  O   UNL     1     -15.088  -1.219  -2.123  1.00  0.00    -0.169 OA
ATOM     28  O   UNL     1     -13.003   0.143  -1.674  1.00  0.00    -0.169 OA
BRANCH  26  29
ATOM     29  O   UNL     1     -13.410  -1.905  -0.448  1.00  0.00    -0.264 OA
ATOM     30  H   UNL     1     -12.556  -1.580  -0.098  1.00  0.00    +0.236 HD
ENDBRANCH  26  29
ENDBRANCH  25  26
ENDBRANCH  24  25
ENDBRANCH   5  24
BRANCH   4  31
ATOM     31  O   UNL     1     -10.525  -2.508  -1.107  1.00  0.00    -0.387 OA
ATOM     32  H   UNL     1     -11.387  -2.856  -0.786  1.00  0.00    +0.211 HD
ENDBRANCH   4  31
TORSDOF 11
ENDMDL
