MODEL 1
REMARK VINA RESULT:    -6.224      0.000      0.000
REMARK INTER + INTRA:         -10.754
REMARK INTER:                  -9.135
REMARK INTRA:                  -1.619
REMARK UNBOUND:                -1.619
REMARK SMILES O=S(=O)(O)OC[C@@H]1O[C@H](O[C@H]2[C@@H]3OC[C@H]2O[C@@H](O)[C@H]3O)[C@@H](O)[C@H](O)[C@@H]1O
REMARK SMILES IDX 9 1 21 2 23 3 25 4 7 5 8 6 10 7 11 8 14 9 15 10 13 11 16 12
REMARK SMILES IDX 12 13 17 14 19 15 18 16 20 18 22 20 24 22 6 24 5 25 2 26
REMARK SMILES IDX 1 27 3 28 4 29 26 31
REMARK H PARENT 18 17 20 19 22 21 24 23 4 30 26 32
ROOT
ATOM      1  C   UNL     1      -6.738  -7.480   9.448  1.00  0.00    +0.282 C 
ATOM      2  C   UNL     1      -7.220  -7.442   7.985  1.00  0.00    +0.202 C 
ATOM      3  C   UNL     1      -8.705  -7.120   7.983  1.00  0.00    +0.179 C 
ATOM      4  C   UNL     1      -8.918  -5.712   8.545  1.00  0.00    +0.177 C 
ATOM      5  C   UNL     1      -7.946  -5.371   9.701  1.00  0.00    +0.180 C 
ATOM      6  O   UNL     1      -7.387  -6.549  10.312  1.00  0.00    -0.341 OA
ENDROOT
BRANCH   1   7
ATOM      7  O   UNL     1      -5.314  -7.344   9.443  1.00  0.00    -0.341 OA
BRANCH   7   8
ATOM      8  C   UNL     1      -4.639  -8.556   9.763  1.00  0.00    +0.184 C 
ATOM      9  C   UNL     1      -2.880  -9.764  10.733  1.00  0.00    +0.195 C 
ATOM     10  C   UNL     1      -3.636  -8.444  10.900  1.00  0.00    +0.179 C 
ATOM     11  O   UNL     1      -2.877 -10.040   9.309  1.00  0.00    -0.370 OA
ATOM     12  O   UNL     1      -2.803  -7.285  10.723  1.00  0.00    -0.342 OA
ATOM     13  C   UNL     1      -3.657  -8.990   8.681  1.00  0.00    +0.184 C 
ATOM     14  C   UNL     1      -2.029  -7.240   9.530  1.00  0.00    +0.279 C 
ATOM     15  C   UNL     1      -2.748  -7.817   8.290  1.00  0.00    +0.202 C 
BRANCH  14  16
ATOM     16  O   UNL     1      -0.801  -7.928   9.755  1.00  0.00    -0.366 OA
ATOM     17  H   UNL     1      -0.161  -7.223   9.960  1.00  0.00    +0.213 HD
ENDBRANCH  14  16
BRANCH  15  18
ATOM     18  O   UNL     1      -1.800  -8.232   7.297  1.00  0.00    -0.385 OA
ATOM     19  H   UNL     1      -1.056  -7.600   7.402  1.00  0.00    +0.211 HD
ENDBRANCH  15  18
ENDBRANCH   7   8
ENDBRANCH   1   7
BRANCH   2  20
ATOM     20  O   UNL     1      -7.010  -8.704   7.329  1.00  0.00    -0.385 OA
ATOM     21  H   UNL     1      -6.273  -8.565   6.703  1.00  0.00    +0.211 HD
ENDBRANCH   2  20
BRANCH   3  22
ATOM     22  O   UNL     1      -9.229  -7.180   6.646  1.00  0.00    -0.387 OA
ATOM     23  H   UNL     1      -9.325  -6.243   6.372  1.00  0.00    +0.211 HD
ENDBRANCH   3  22
BRANCH   5  24
ATOM     24  C   UNL     1      -6.862  -4.334   9.357  1.00  0.00    +0.220 C 
BRANCH  24  25
ATOM     25  O   UNL     1      -6.767  -3.405  10.434  1.00  0.00    -0.245 OA
BRANCH  25  26
ATOM     26  S   UNL     1      -5.655  -3.689  11.583  1.00  0.00    +0.397 S 
ATOM     27  O   UNL     1      -6.304  -4.108  12.805  1.00  0.00    -0.169 OA
ATOM     28  O   UNL     1      -4.688  -2.616  11.553  1.00  0.00    -0.169 OA
BRANCH  26  29
ATOM     29  O   UNL     1      -4.874  -4.962  10.983  1.00  0.00    -0.264 OA
ATOM     30  H   UNL     1      -5.333  -5.760  11.314  1.00  0.00    +0.236 HD
ENDBRANCH  26  29
ENDBRANCH  25  26
ENDBRANCH  24  25
ENDBRANCH   5  24
BRANCH   4  31
ATOM     31  O   UNL     1      -8.818  -4.761   7.479  1.00  0.00    -0.387 OA
ATOM     32  H   UNL     1      -8.402  -3.968   7.888  1.00  0.00    +0.211 HD
ENDBRANCH   4  31
TORSDOF 11
ENDMDL
MODEL 2
REMARK VINA RESULT:    -6.103     26.467     28.566
REMARK INTER + INTRA:         -10.577
REMARK INTER:                  -9.313
REMARK INTRA:                  -1.263
REMARK UNBOUND:                -1.619
REMARK SMILES O=S(=O)(O)OC[C@@H]1O[C@H](O[C@H]2[C@@H]3OC[C@H]2O[C@@H](O)[C@H]3O)[C@@H](O)[C@H](O)[C@@H]1O
REMARK SMILES IDX 9 1 21 2 23 3 25 4 7 5 8 6 10 7 11 8 14 9 15 10 13 11 16 12
REMARK SMILES IDX 12 13 17 14 19 15 18 16 20 18 22 20 24 22 6 24 5 25 2 26
REMARK SMILES IDX 1 27 3 28 4 29 26 31
REMARK H PARENT 18 17 20 19 22 21 24 23 4 30 26 32
ROOT
ATOM      1  C   UNL     1      -3.777 -10.747 -18.446  1.00  0.00    +0.282 C 
ATOM      2  C   UNL     1      -2.748  -9.626 -18.202  1.00  0.00    +0.202 C 
ATOM      3  C   UNL     1      -1.741  -9.650 -19.339  1.00  0.00    +0.179 C 
ATOM      4  C   UNL     1      -2.452  -9.307 -20.652  1.00  0.00    +0.177 C 
ATOM      5  C   UNL     1      -3.883  -9.890 -20.733  1.00  0.00    +0.180 C 
ATOM      6  O   UNL     1      -4.080 -10.987 -19.819  1.00  0.00    -0.341 OA
ENDROOT
BRANCH   1   7
ATOM      7  O   UNL     1      -4.934 -10.459 -17.657  1.00  0.00    -0.341 OA
BRANCH   7   8
ATOM      8  C   UNL     1      -5.775 -11.592 -17.469  1.00  0.00    +0.184 C 
ATOM      9  C   UNL     1      -7.570 -12.705 -16.453  1.00  0.00    +0.195 C 
ATOM     10  C   UNL     1      -7.113 -11.290 -16.812  1.00  0.00    +0.179 C 
ATOM     11  O   UNL     1      -6.361 -13.449 -16.155  1.00  0.00    -0.370 OA
ATOM     12  O   UNL     1      -6.929 -10.442 -15.664  1.00  0.00    -0.342 OA
ATOM     13  C   UNL     1      -5.249 -12.550 -16.406  1.00  0.00    +0.184 C 
ATOM     14  C   UNL     1      -6.104 -10.959 -14.625  1.00  0.00    +0.279 C 
ATOM     15  C   UNL     1      -4.894 -11.778 -15.127  1.00  0.00    +0.202 C 
BRANCH  14  16
ATOM     16  O   UNL     1      -6.909 -11.747 -13.752  1.00  0.00    -0.366 OA
ATOM     17  H   UNL     1      -6.328 -12.479 -13.479  1.00  0.00    +0.213 HD
ENDBRANCH  14  16
BRANCH  15  18
ATOM     18  O   UNL     1      -4.433 -12.680 -14.113  1.00  0.00    -0.385 OA
ATOM     19  H   UNL     1      -5.234 -13.190 -13.868  1.00  0.00    +0.211 HD
ENDBRANCH  15  18
ENDBRANCH   7   8
ENDBRANCH   1   7
BRANCH   2  20
ATOM     20  O   UNL     1      -2.057  -9.810 -16.955  1.00  0.00    -0.385 OA
ATOM     21  H   UNL     1      -1.104  -9.746 -17.162  1.00  0.00    +0.211 HD
ENDBRANCH   2  20
BRANCH   3  22
ATOM     22  O   UNL     1      -0.695  -8.692 -19.103  1.00  0.00    -0.387 OA
ATOM     23  H   UNL     1      -1.054  -8.094 -18.414  1.00  0.00    +0.211 HD
ENDBRANCH   3  22
BRANCH   5  24
ATOM     24  C   UNL     1      -5.017  -8.854 -20.637  1.00  0.00    +0.220 C 
BRANCH  24  25
ATOM     25  O   UNL     1      -5.139  -8.199 -21.898  1.00  0.00    -0.245 OA
BRANCH  25  26
ATOM     26  S   UNL     1      -5.643  -6.656 -21.904  1.00  0.00    +0.397 S 
ATOM     27  O   UNL     1      -7.041  -6.592 -21.542  1.00  0.00    -0.169 OA
ATOM     28  O   UNL     1      -5.124  -6.014 -23.091  1.00  0.00    -0.169 OA
BRANCH  26  29
ATOM     29  O   UNL     1      -4.795  -6.023 -20.691  1.00  0.00    -0.264 OA
ATOM     30  H   UNL     1      -5.184  -6.367 -19.862  1.00  0.00    +0.236 HD
ENDBRANCH  26  29
ENDBRANCH  25  26
ENDBRANCH  24  25
ENDBRANCH   5  24
BRANCH   4  31
ATOM     31  O   UNL     1      -2.456  -7.885 -20.825  1.00  0.00    -0.387 OA
ATOM     32  H   UNL     1      -2.023  -7.737 -21.696  1.00  0.00    +0.211 HD
ENDBRANCH   4  31
TORSDOF 11
ENDMDL
MODEL 3
REMARK VINA RESULT:    -5.947     26.547     28.704
REMARK INTER + INTRA:         -10.347
REMARK INTER:                  -8.736
REMARK INTRA:                  -1.611
REMARK UNBOUND:                -1.619
REMARK SMILES O=S(=O)(O)OC[C@@H]1O[C@H](O[C@H]2[C@@H]3OC[C@H]2O[C@@H](O)[C@H]3O)[C@@H](O)[C@H](O)[C@@H]1O
REMARK SMILES IDX 9 1 21 2 23 3 25 4 7 5 8 6 10 7 11 8 14 9 15 10 13 11 16 12
REMARK SMILES IDX 12 13 17 14 19 15 18 16 20 18 22 20 24 22 6 24 5 25 2 26
REMARK SMILES IDX 1 27 3 28 4 29 26 31
REMARK H PARENT 18 17 20 19 22 21 24 23 4 30 26 32
ROOT
ATOM      1  C   UNL     1      -6.376 -11.028 -17.474  1.00  0.00    +0.282 C 
ATOM      2  C   UNL     1      -5.912 -11.112 -16.007  1.00  0.00    +0.202 C 
ATOM      3  C   UNL     1      -7.067 -11.642 -15.174  1.00  0.00    +0.179 C 
ATOM      4  C   UNL     1      -7.389 -13.074 -15.609  1.00  0.00    +0.177 C 
ATOM      5  C   UNL     1      -7.234 -13.291 -17.133  1.00  0.00    +0.180 C 
ATOM      6  O   UNL     1      -7.284 -12.054 -17.870  1.00  0.00    -0.341 OA
ENDROOT
BRANCH   1   7
ATOM      7  O   UNL     1      -5.210 -10.960 -18.299  1.00  0.00    -0.341 OA
BRANCH   7   8
ATOM      8  C   UNL     1      -5.140  -9.762 -19.064  1.00  0.00    +0.184 C 
ATOM      9  C   UNL     1      -4.384  -8.501 -20.890  1.00  0.00    +0.195 C 
ATOM     10  C   UNL     1      -4.679  -9.950 -20.501  1.00  0.00    +0.179 C 
ATOM     11  O   UNL     1      -3.917  -7.853 -19.679  1.00  0.00    -0.370 OA
ATOM     12  O   UNL     1      -3.519 -10.800 -20.549  1.00  0.00    -0.342 OA
ATOM     13  C   UNL     1      -4.011  -8.839 -18.619  1.00  0.00    +0.184 C 
ATOM     14  C   UNL     1      -2.372 -10.342 -19.840  1.00  0.00    +0.279 C 
ATOM     15  C   UNL     1      -2.697  -9.626 -18.510  1.00  0.00    +0.202 C 
BRANCH  14  16
ATOM     16  O   UNL     1      -1.619  -9.484 -20.694  1.00  0.00    -0.366 OA
ATOM     17  H   UNL     1      -1.228 -10.082 -21.356  1.00  0.00    +0.213 HD
ENDBRANCH  14  16
BRANCH  15  18
ATOM     18  O   UNL     1      -1.626  -8.754 -18.125  1.00  0.00    -0.385 OA
ATOM     19  H   UNL     1      -1.406  -8.271 -18.951  1.00  0.00    +0.211 HD
ENDBRANCH  15  18
ENDBRANCH   7   8
ENDBRANCH   1   7
BRANCH   2  20
ATOM     20  O   UNL     1      -5.520  -9.823 -15.505  1.00  0.00    -0.385 OA
ATOM     21  H   UNL     1      -4.664  -9.617 -15.929  1.00  0.00    +0.211 HD
ENDBRANCH   2  20
BRANCH   3  22
ATOM     22  O   UNL     1      -6.722 -11.637 -13.778  1.00  0.00    -0.387 OA
ATOM     23  H   UNL     1      -6.506 -10.703 -13.577  1.00  0.00    +0.211 HD
ENDBRANCH   3  22
BRANCH   5  24
ATOM     24  C   UNL     1      -6.032 -14.158 -17.550  1.00  0.00    +0.220 C 
BRANCH  24  25
ATOM     25  O   UNL     1      -6.351 -14.815 -18.774  1.00  0.00    -0.245 OA
BRANCH  25  26
ATOM     26  S   UNL     1      -5.571 -14.338 -20.115  1.00  0.00    +0.397 S 
ATOM     27  O   UNL     1      -5.827 -15.268 -21.192  1.00  0.00    -0.169 OA
ATOM     28  O   UNL     1      -4.232 -13.939 -19.744  1.00  0.00    -0.169 OA
BRANCH  26  29
ATOM     29  O   UNL     1      -6.326 -12.961 -20.469  1.00  0.00    -0.264 OA
ATOM     30  H   UNL     1      -7.172 -13.202 -20.898  1.00  0.00    +0.236 HD
ENDBRANCH  26  29
ENDBRANCH  25  26
ENDBRANCH  24  25
ENDBRANCH   5  24
BRANCH   4  31
ATOM     31  O   UNL     1      -6.573 -13.986 -14.865  1.00  0.00    -0.387 OA
ATOM     32  H   UNL     1      -6.346 -14.698 -15.503  1.00  0.00    +0.211 HD
ENDBRANCH   4  31
TORSDOF 11
ENDMDL
MODEL 4
REMARK VINA RESULT:    -5.868     22.619     25.756
REMARK INTER + INTRA:         -10.231
REMARK INTER:                  -9.007
REMARK INTRA:                  -1.224
REMARK UNBOUND:                -1.619
REMARK SMILES O=S(=O)(O)OC[C@@H]1O[C@H](O[C@H]2[C@@H]3OC[C@H]2O[C@@H](O)[C@H]3O)[C@@H](O)[C@H](O)[C@@H]1O
REMARK SMILES IDX 9 1 21 2 23 3 25 4 7 5 8 6 10 7 11 8 14 9 15 10 13 11 16 12
REMARK SMILES IDX 12 13 17 14 19 15 18 16 20 18 22 20 24 22 6 24 5 25 2 26
REMARK SMILES IDX 1 27 3 28 4 29 26 31
REMARK H PARENT 18 17 20 19 22 21 24 23 4 30 26 32
ROOT
ATOM      1  C   UNL     1     -12.688  13.310  -4.901  1.00  0.00    +0.282 C 
ATOM      2  C   UNL     1     -11.642  13.867  -3.916  1.00  0.00    +0.202 C 
ATOM      3  C   UNL     1     -11.158  15.206  -4.445  1.00  0.00    +0.179 C 
ATOM      4  C   UNL     1     -12.322  16.200  -4.446  1.00  0.00    +0.177 C 
ATOM      5  C   UNL     1     -13.674  15.545  -4.819  1.00  0.00    +0.180 C 
ATOM      6  O   UNL     1     -13.504  14.301  -5.524  1.00  0.00    -0.341 OA
ENDROOT
BRANCH   1   7
ATOM      7  O   UNL     1     -13.446  12.309  -4.215  1.00  0.00    -0.341 OA
BRANCH   7   8
ATOM      8  C   UNL     1     -14.338  11.604  -5.072  1.00  0.00    +0.184 C 
ATOM      9  C   UNL     1     -16.186  10.215  -5.461  1.00  0.00    +0.195 C 
ATOM     10  C   UNL     1     -15.662  11.218  -4.432  1.00  0.00    +0.179 C 
ATOM     11  O   UNL     1     -15.012   9.557  -6.004  1.00  0.00    -0.370 OA
ATOM     12  O   UNL     1     -15.443  10.639  -3.133  1.00  0.00    -0.342 OA
ATOM     13  C   UNL     1     -13.860  10.193  -5.393  1.00  0.00    +0.184 C 
ATOM     14  C   UNL     1     -14.646   9.460  -3.095  1.00  0.00    +0.279 C 
ATOM     15  C   UNL     1     -13.473   9.458  -4.102  1.00  0.00    +0.202 C 
BRANCH  14  16
ATOM     16  O   UNL     1     -15.488   8.331  -3.313  1.00  0.00    -0.366 OA
ATOM     17  H   UNL     1     -14.872   7.590  -3.451  1.00  0.00    +0.213 HD
ENDBRANCH  14  16
BRANCH  15  18
ATOM     18  O   UNL     1     -13.057   8.119  -4.397  1.00  0.00    -0.385 OA
ATOM     19  H   UNL     1     -12.382   8.231  -5.100  1.00  0.00    +0.211 HD
ENDBRANCH  15  18
ENDBRANCH   7   8
ENDBRANCH   1   7
BRANCH   2  20
ATOM     20  O   UNL     1     -10.520  12.977  -3.784  1.00  0.00    -0.385 OA
ATOM     21  H   UNL     1      -9.773  13.528  -3.476  1.00  0.00    +0.211 HD
ENDBRANCH   2  20
BRANCH   3  22
ATOM     22  O   UNL     1     -10.099  15.718  -3.619  1.00  0.00    -0.387 OA
ATOM     23  H   UNL     1     -10.505  15.832  -2.734  1.00  0.00    +0.211 HD
ENDBRANCH   3  22
BRANCH   5  24
ATOM     24  C   UNL     1     -14.677  15.414  -3.659  1.00  0.00    +0.220 C 
BRANCH  24  25
ATOM     25  O   UNL     1     -15.842  14.748  -4.141  1.00  0.00    -0.245 OA
BRANCH  25  26
ATOM     26  S   UNL     1     -17.060  14.500  -3.097  1.00  0.00    +0.397 S 
ATOM     27  O   UNL     1     -18.145  13.812  -3.758  1.00  0.00    -0.169 OA
ATOM     28  O   UNL     1     -17.264  15.715  -2.341  1.00  0.00    -0.169 OA
BRANCH  26  29
ATOM     29  O   UNL     1     -16.397  13.473  -2.049  1.00  0.00    -0.264 OA
ATOM     30  H   UNL     1     -15.677  13.955  -1.593  1.00  0.00    +0.236 HD
ENDBRANCH  26  29
ENDBRANCH  25  26
ENDBRANCH  24  25
ENDBRANCH   5  24
BRANCH   4  31
ATOM     31  O   UNL     1     -12.388  16.847  -3.170  1.00  0.00    -0.387 OA
ATOM     32  H   UNL     1     -11.868  16.269  -2.568  1.00  0.00    +0.211 HD
ENDBRANCH   4  31
TORSDOF 11
ENDMDL
MODEL 5
REMARK VINA RESULT:    -5.848     21.363     24.121
REMARK INTER + INTRA:         -10.202
REMARK INTER:                  -8.960
REMARK INTRA:                  -1.242
REMARK UNBOUND:                -1.619
REMARK SMILES O=S(=O)(O)OC[C@@H]1O[C@H](O[C@H]2[C@@H]3OC[C@H]2O[C@@H](O)[C@H]3O)[C@@H](O)[C@H](O)[C@@H]1O
REMARK SMILES IDX 9 1 21 2 23 3 25 4 7 5 8 6 10 7 11 8 14 9 15 10 13 11 16 12
REMARK SMILES IDX 12 13 17 14 19 15 18 16 20 18 22 20 24 22 6 24 5 25 2 26
REMARK SMILES IDX 1 27 3 28 4 29 26 31
REMARK H PARENT 18 17 20 19 22 21 24 23 4 30 26 32
ROOT
ATOM      1  C   UNL     1      -8.361  15.637   7.955  1.00  0.00    +0.282 C 
ATOM      2  C   UNL     1      -8.946  15.568   9.379  1.00  0.00    +0.202 C 
ATOM      3  C   UNL     1      -8.648  14.192   9.949  1.00  0.00    +0.179 C 
ATOM      4  C   UNL     1      -7.133  14.023  10.095  1.00  0.00    +0.177 C 
ATOM      5  C   UNL     1      -6.339  14.689   8.946  1.00  0.00    +0.180 C 
ATOM      6  O   UNL     1      -7.148  14.909   7.775  1.00  0.00    -0.341 OA
ENDROOT
BRANCH   1   7
ATOM      7  O   UNL     1      -8.248  17.016   7.594  1.00  0.00    -0.341 OA
BRANCH   7   8
ATOM      8  C   UNL     1      -7.371  17.232   6.493  1.00  0.00    +0.184 C 
ATOM      9  C   UNL     1      -6.211  18.616   4.998  1.00  0.00    +0.195 C 
ATOM     10  C   UNL     1      -6.773  18.629   6.421  1.00  0.00    +0.179 C 
ATOM     11  O   UNL     1      -7.112  17.781   4.225  1.00  0.00    -0.370 OA
ATOM     12  O   UNL     1      -7.794  19.623   6.621  1.00  0.00    -0.342 OA
ATOM     13  C   UNL     1      -8.099  17.264   5.154  1.00  0.00    +0.184 C 
ATOM     14  C   UNL     1      -8.867  19.622   5.687  1.00  0.00    +0.279 C 
ATOM     15  C   UNL     1      -9.303  18.212   5.229  1.00  0.00    +0.202 C 
BRANCH  14  16
ATOM     16  O   UNL     1      -8.496  20.416   4.563  1.00  0.00    -0.366 OA
ATOM     17  H   UNL     1      -8.444  21.323   4.912  1.00  0.00    +0.213 HD
ENDBRANCH  14  16
BRANCH  15  18
ATOM     18  O   UNL     1      -9.969  18.271   3.961  1.00  0.00    -0.385 OA
ATOM     19  H   UNL     1     -10.458  17.421   3.910  1.00  0.00    +0.211 HD
ENDBRANCH  15  18
ENDBRANCH   7   8
ENDBRANCH   1   7
BRANCH   2  20
ATOM     20  O   UNL     1     -10.369  15.779   9.373  1.00  0.00    -0.385 OA
ATOM     21  H   UNL     1     -10.747  15.085   9.948  1.00  0.00    +0.211 HD
ENDBRANCH   2  20
BRANCH   3  22
ATOM     22  O   UNL     1      -9.268  14.037  11.236  1.00  0.00    -0.387 OA
ATOM     23  H   UNL     1      -9.492  13.084  11.293  1.00  0.00    +0.211 HD
ENDBRANCH   3  22
BRANCH   5  24
ATOM     24  C   UNL     1      -5.552  15.951   9.344  1.00  0.00    +0.220 C 
BRANCH  24  25
ATOM     25  O   UNL     1      -4.354  15.548  10.004  1.00  0.00    -0.245 OA
BRANCH  25  26
ATOM     26  S   UNL     1      -3.813  16.474  11.223  1.00  0.00    +0.397 S 
ATOM     27  O   UNL     1      -4.681  17.617  11.398  1.00  0.00    -0.169 OA
ATOM     28  O   UNL     1      -2.380  16.608  11.090  1.00  0.00    -0.169 OA
BRANCH  26  29
ATOM     29  O   UNL     1      -4.018  15.506  12.493  1.00  0.00    -0.264 OA
ATOM     30  H   UNL     1      -3.650  15.974  13.270  1.00  0.00    +0.236 HD
ENDBRANCH  26  29
ENDBRANCH  25  26
ENDBRANCH  24  25
ENDBRANCH   5  24
BRANCH   4  31
ATOM     31  O   UNL     1      -6.726  14.524  11.373  1.00  0.00    -0.387 OA
ATOM     32  H   UNL     1      -6.043  13.889  11.686  1.00  0.00    +0.211 HD
ENDBRANCH   4  31
TORSDOF 11
ENDMDL
MODEL 6
REMARK VINA RESULT:    -5.665      2.097      4.392
REMARK INTER + INTRA:          -9.933
REMARK INTER:                  -8.088
REMARK INTRA:                  -1.845
REMARK UNBOUND:                -1.619
REMARK SMILES O=S(=O)(O)OC[C@@H]1O[C@H](O[C@H]2[C@@H]3OC[C@H]2O[C@@H](O)[C@H]3O)[C@@H](O)[C@H](O)[C@@H]1O
REMARK SMILES IDX 9 1 21 2 23 3 25 4 7 5 8 6 10 7 11 8 14 9 15 10 13 11 16 12
REMARK SMILES IDX 12 13 17 14 19 15 18 16 20 18 22 20 24 22 6 24 5 25 2 26
REMARK SMILES IDX 1 27 3 28 4 29 26 31
REMARK H PARENT 18 17 20 19 22 21 24 23 4 30 26 32
ROOT
ATOM      1  C   UNL     1      -5.687  -6.108   9.632  1.00  0.00    +0.282 C 
ATOM      2  C   UNL     1      -6.148  -5.546  10.991  1.00  0.00    +0.202 C 
ATOM      3  C   UNL     1      -7.346  -4.645  10.751  1.00  0.00    +0.179 C 
ATOM      4  C   UNL     1      -8.509  -5.483  10.212  1.00  0.00    +0.177 C 
ATOM      5  C   UNL     1      -8.049  -6.607   9.254  1.00  0.00    +0.180 C 
ATOM      6  O   UNL     1      -6.741  -6.358   8.704  1.00  0.00    -0.341 OA
ENDROOT
BRANCH   1   7
ATOM      7  O   UNL     1      -4.877  -7.259   9.885  1.00  0.00    -0.341 OA
BRANCH   7   8
ATOM      8  C   UNL     1      -3.488  -7.015   9.686  1.00  0.00    +0.184 C 
ATOM      9  C   UNL     1      -1.399  -7.527   8.754  1.00  0.00    +0.195 C 
ATOM     10  C   UNL     1      -2.892  -7.697   8.465  1.00  0.00    +0.179 C 
ATOM     11  O   UNL     1      -1.267  -7.582  10.198  1.00  0.00    -0.370 OA
ATOM     12  O   UNL     1      -3.307  -9.074   8.405  1.00  0.00    -0.342 OA
ATOM     13  C   UNL     1      -2.612  -7.692  10.733  1.00  0.00    +0.184 C 
ATOM     14  C   UNL     1      -2.942  -9.891   9.512  1.00  0.00    +0.279 C 
ATOM     15  C   UNL     1      -3.004  -9.169  10.877  1.00  0.00    +0.202 C 
BRANCH  14  16
ATOM     16  O   UNL     1      -1.635 -10.411   9.285  1.00  0.00    -0.366 OA
ATOM     17  H   UNL     1      -1.075  -9.623   9.168  1.00  0.00    +0.213 HD
ENDBRANCH  14  16
BRANCH  15  18
ATOM     18  O   UNL     1      -2.159  -9.818  11.836  1.00  0.00    -0.385 OA
ATOM     19  H   UNL     1      -1.362 -10.066  11.319  1.00  0.00    +0.211 HD
ENDBRANCH  15  18
ENDBRANCH   7   8
ENDBRANCH   1   7
BRANCH   2  20
ATOM     20  O   UNL     1      -5.105  -4.786  11.626  1.00  0.00    -0.385 OA
ATOM     21  H   UNL     1      -5.186  -4.962  12.584  1.00  0.00    +0.211 HD
ENDBRANCH   2  20
BRANCH   3  22
ATOM     22  O   UNL     1      -7.749  -4.008  11.975  1.00  0.00    -0.387 OA
ATOM     23  H   UNL     1      -8.200  -4.712  12.487  1.00  0.00    +0.211 HD
ENDBRANCH   3  22
BRANCH   5  24
ATOM     24  C   UNL     1      -8.172  -8.035   9.816  1.00  0.00    +0.220 C 
BRANCH  24  25
ATOM     25  O   UNL     1      -8.284  -8.944   8.723  1.00  0.00    -0.245 OA
BRANCH  25  26
ATOM     26  S   UNL     1      -7.050  -9.965   8.458  1.00  0.00    +0.397 S 
ATOM     27  O   UNL     1      -7.472 -11.032   7.580  1.00  0.00    -0.169 OA
ATOM     28  O   UNL     1      -6.393 -10.220   9.720  1.00  0.00    -0.169 OA
BRANCH  26  29
ATOM     29  O   UNL     1      -6.019  -9.037   7.639  1.00  0.00    -0.264 OA
ATOM     30  H   UNL     1      -6.537  -8.292   7.273  1.00  0.00    +0.236 HD
ENDBRANCH  26  29
ENDBRANCH  25  26
ENDBRANCH  24  25
ENDBRANCH   5  24
BRANCH   4  31
ATOM     31  O   UNL     1      -9.258  -6.008  11.314  1.00  0.00    -0.387 OA
ATOM     32  H   UNL     1      -9.595  -5.216  11.789  1.00  0.00    +0.211 HD
ENDBRANCH   4  31
TORSDOF 11
ENDMDL
MODEL 7
REMARK VINA RESULT:    -5.659     26.061     28.344
REMARK INTER + INTRA:          -9.924
REMARK INTER:                  -8.842
REMARK INTRA:                  -1.082
REMARK UNBOUND:                -1.619
REMARK SMILES O=S(=O)(O)OC[C@@H]1O[C@H](O[C@H]2[C@@H]3OC[C@H]2O[C@@H](O)[C@H]3O)[C@@H](O)[C@H](O)[C@@H]1O
REMARK SMILES IDX 9 1 21 2 23 3 25 4 7 5 8 6 10 7 11 8 14 9 15 10 13 11 16 12
REMARK SMILES IDX 12 13 17 14 19 15 18 16 20 18 22 20 24 22 6 24 5 25 2 26
REMARK SMILES IDX 1 27 3 28 4 29 26 31
REMARK H PARENT 18 17 20 19 22 21 24 23 4 30 26 32
ROOT
ATOM      1  C   UNL     1      -3.463 -10.405 -17.633  1.00  0.00    +0.282 C 
ATOM      2  C   UNL     1      -3.695  -9.857 -19.054  1.00  0.00    +0.202 C 
ATOM      3  C   UNL     1      -2.617  -8.827 -19.347  1.00  0.00    +0.179 C 
ATOM      4  C   UNL     1      -1.250  -9.517 -19.366  1.00  0.00    +0.177 C 
ATOM      5  C   UNL     1      -1.128 -10.642 -18.310  1.00  0.00    +0.180 C 
ATOM      6  O   UNL     1      -2.093 -10.505 -17.250  1.00  0.00    -0.341 OA
ENDROOT
BRANCH   1   7
ATOM      7  O   UNL     1      -4.171 -11.643 -17.521  1.00  0.00    -0.341 OA
BRANCH   7   8
ATOM      8  C   UNL     1      -4.205 -12.144 -16.188  1.00  0.00    +0.184 C 
ATOM      9  C   UNL     1      -5.223 -13.318 -14.433  1.00  0.00    +0.195 C 
ATOM     10  C   UNL     1      -5.188 -13.282 -15.962  1.00  0.00    +0.179 C 
ATOM     11  O   UNL     1      -5.037 -11.946 -14.001  1.00  0.00    -0.370 OA
ATOM     12  O   UNL     1      -6.462 -12.971 -16.554  1.00  0.00    -0.342 OA
ATOM     13  C   UNL     1      -4.821 -11.159 -15.201  1.00  0.00    +0.184 C 
ATOM     14  C   UNL     1      -7.116 -11.804 -16.067  1.00  0.00    +0.279 C 
ATOM     15  C   UNL     1      -6.159 -10.636 -15.740  1.00  0.00    +0.202 C 
BRANCH  14  16
ATOM     16  O   UNL     1      -7.882 -12.155 -14.917  1.00  0.00    -0.366 OA
ATOM     17  H   UNL     1      -7.658 -13.088 -14.750  1.00  0.00    +0.213 HD
ENDBRANCH  14  16
BRANCH  15  18
ATOM     18  O   UNL     1      -6.757  -9.736 -14.797  1.00  0.00    -0.385 OA
ATOM     19  H   UNL     1      -7.718  -9.804 -14.983  1.00  0.00    +0.211 HD
ENDBRANCH  15  18
ENDBRANCH   7   8
ENDBRANCH   1   7
BRANCH   2  20
ATOM     20  O   UNL     1      -4.986  -9.236 -19.174  1.00  0.00    -0.385 OA
ATOM     21  H   UNL     1      -5.524  -9.835 -19.728  1.00  0.00    +0.211 HD
ENDBRANCH   2  20
BRANCH   3  22
ATOM     22  O   UNL     1      -2.851  -8.204 -20.621  1.00  0.00    -0.387 OA
ATOM     23  H   UNL     1      -3.687  -7.706 -20.506  1.00  0.00    +0.211 HD
ENDBRANCH   3  22
BRANCH   5  24
ATOM     24  C   UNL     1      -1.100 -12.072 -18.880  1.00  0.00    +0.220 C 
BRANCH  24  25
ATOM     25  O   UNL     1       0.213 -12.601 -18.709  1.00  0.00    -0.245 OA
BRANCH  25  26
ATOM     26  S   UNL     1       1.224 -12.544 -19.978  1.00  0.00    +0.397 S 
ATOM     27  O   UNL     1       1.999 -13.762 -20.047  1.00  0.00    -0.169 OA
ATOM     28  O   UNL     1       1.839 -11.236 -20.009  1.00  0.00    -0.169 OA
BRANCH  26  29
ATOM     29  O   UNL     1       0.200 -12.544 -21.220  1.00  0.00    -0.264 OA
ATOM     30  H   UNL     1      -0.703 -12.599 -20.845  1.00  0.00    +0.236 HD
ENDBRANCH  26  29
ENDBRANCH  25  26
ENDBRANCH  24  25
ENDBRANCH   5  24
BRANCH   4  31
ATOM     31  O   UNL     1      -0.991 -10.009 -20.686  1.00  0.00    -0.387 OA
ATOM     32  H   UNL     1      -0.777  -9.208 -21.215  1.00  0.00    +0.211 HD
ENDBRANCH   4  31
TORSDOF 11
ENDMDL
MODEL 8
REMARK VINA RESULT:    -5.608     21.765     24.821
REMARK INTER + INTRA:          -9.849
REMARK INTER:                  -8.810
REMARK INTRA:                  -1.040
REMARK UNBOUND:                -1.619
REMARK SMILES O=S(=O)(O)OC[C@@H]1O[C@H](O[C@H]2[C@@H]3OC[C@H]2O[C@@H](O)[C@H]3O)[C@@H](O)[C@H](O)[C@@H]1O
REMARK SMILES IDX 9 1 21 2 23 3 25 4 7 5 8 6 10 7 11 8 14 9 15 10 13 11 16 12
REMARK SMILES IDX 12 13 17 14 19 15 18 16 20 18 22 20 24 22 6 24 5 25 2 26
REMARK SMILES IDX 1 27 3 28 4 29 26 31
REMARK H PARENT 18 17 20 19 22 21 24 23 4 30 26 32
ROOT
ATOM      1  C   UNL     1      -7.461  18.022   6.495  1.00  0.00    +0.282 C 
ATOM      2  C   UNL     1      -7.805  16.954   5.440  1.00  0.00    +0.202 C 
ATOM      3  C   UNL     1      -8.440  17.651   4.249  1.00  0.00    +0.179 C 
ATOM      4  C   UNL     1      -7.413  18.583   3.601  1.00  0.00    +0.177 C 
ATOM      5  C   UNL     1      -6.491  19.274   4.635  1.00  0.00    +0.180 C 
ATOM      6  O   UNL     1      -7.059  19.281   5.958  1.00  0.00    -0.341 OA
ENDROOT
BRANCH   1   7
ATOM      7  O   UNL     1      -6.498  17.459   7.390  1.00  0.00    -0.341 OA
BRANCH   7   8
ATOM      8  C   UNL     1      -6.935  17.456   8.746  1.00  0.00    +0.184 C 
ATOM      9  C   UNL     1      -6.597  17.108  11.039  1.00  0.00    +0.195 C 
ATOM     10  C   UNL     1      -5.815  17.469   9.775  1.00  0.00    +0.179 C 
ATOM     11  O   UNL     1      -7.661  16.222  10.607  1.00  0.00    -0.370 OA
ATOM     12  O   UNL     1      -4.807  16.500   9.432  1.00  0.00    -0.342 OA
ATOM     13  C   UNL     1      -7.564  16.132   9.162  1.00  0.00    +0.184 C 
ATOM     14  C   UNL     1      -5.236  15.145   9.355  1.00  0.00    +0.279 C 
ATOM     15  C   UNL     1      -6.652  14.964   8.764  1.00  0.00    +0.202 C 
BRANCH  14  16
ATOM     16  O   UNL     1      -5.164  14.568  10.657  1.00  0.00    -0.366 OA
ATOM     17  H   UNL     1      -4.253  14.744  10.952  1.00  0.00    +0.213 HD
ENDBRANCH  14  16
BRANCH  15  18
ATOM     18  O   UNL     1      -7.225  13.719   9.185  1.00  0.00    -0.385 OA
ATOM     19  H   UNL     1      -8.110  13.969   9.527  1.00  0.00    +0.211 HD
ENDBRANCH  15  18
ENDBRANCH   7   8
ENDBRANCH   1   7
BRANCH   2  20
ATOM     20  O   UNL     1      -8.724  15.977   5.960  1.00  0.00    -0.385 OA
ATOM     21  H   UNL     1      -8.176  15.302   6.407  1.00  0.00    +0.211 HD
ENDBRANCH   2  20
BRANCH   3  22
ATOM     22  O   UNL     1      -8.880  16.685   3.278  1.00  0.00    -0.387 OA
ATOM     23  H   UNL     1      -8.393  16.914   2.459  1.00  0.00    +0.211 HD
ENDBRANCH   3  22
BRANCH   5  24
ATOM     24  C   UNL     1      -5.032  18.782   4.640  1.00  0.00    +0.220 C 
BRANCH  24  25
ATOM     25  O   UNL     1      -4.361  19.343   3.514  1.00  0.00    -0.245 OA
BRANCH  25  26
ATOM     26  S   UNL     1      -2.965  20.128   3.778  1.00  0.00    +0.397 S 
ATOM     27  O   UNL     1      -3.158  21.156   4.775  1.00  0.00    -0.169 OA
ATOM     28  O   UNL     1      -2.349  20.400   2.499  1.00  0.00    -0.169 OA
BRANCH  26  29
ATOM     29  O   UNL     1      -2.053  18.975   4.435  1.00  0.00    -0.264 OA
ATOM     30  H   UNL     1      -1.183  19.012   3.989  1.00  0.00    +0.236 HD
ENDBRANCH  26  29
ENDBRANCH  25  26
ENDBRANCH  24  25
ENDBRANCH   5  24
BRANCH   4  31
ATOM     31  O   UNL     1      -6.656  17.848   2.634  1.00  0.00    -0.387 OA
ATOM     32  H   UNL     1      -7.093  16.968   2.588  1.00  0.00    +0.211 HD
ENDBRANCH   4  31
TORSDOF 11
ENDMDL
MODEL 9
REMARK VINA RESULT:    -5.587     26.342     28.441
REMARK INTER + INTRA:          -9.819
REMARK INTER:                  -8.778
REMARK INTRA:                  -1.040
REMARK UNBOUND:                -1.619
REMARK SMILES O=S(=O)(O)OC[C@@H]1O[C@H](O[C@H]2[C@@H]3OC[C@H]2O[C@@H](O)[C@H]3O)[C@@H](O)[C@H](O)[C@@H]1O
REMARK SMILES IDX 9 1 21 2 23 3 25 4 7 5 8 6 10 7 11 8 14 9 15 10 13 11 16 12
REMARK SMILES IDX 12 13 17 14 19 15 18 16 20 18 22 20 24 22 6 24 5 25 2 26
REMARK SMILES IDX 1 27 3 28 4 29 26 31
REMARK H PARENT 18 17 20 19 22 21 24 23 4 30 26 32
ROOT
ATOM      1  C   UNL     1      -4.957  -9.858 -18.384  1.00  0.00    +0.282 C 
ATOM      2  C   UNL     1      -5.378  -9.826 -19.866  1.00  0.00    +0.202 C 
ATOM      3  C   UNL     1      -4.871  -8.530 -20.476  1.00  0.00    +0.179 C 
ATOM      4  C   UNL     1      -3.339  -8.530 -20.461  1.00  0.00    +0.177 C 
ATOM      5  C   UNL     1      -2.749  -9.195 -19.195  1.00  0.00    +0.180 C 
ATOM      6  O   UNL     1      -3.696  -9.249 -18.111  1.00  0.00    -0.341 OA
ENDROOT
BRANCH   1   7
ATOM      7  O   UNL     1      -5.036 -11.214 -17.936  1.00  0.00    -0.341 OA
BRANCH   7   8
ATOM      8  C   UNL     1      -4.410 -11.418 -16.673  1.00  0.00    +0.184 C 
ATOM      9  C   UNL     1      -3.748 -12.768 -14.875  1.00  0.00    +0.195 C 
ATOM     10  C   UNL     1      -4.043 -12.863 -16.372  1.00  0.00    +0.179 C 
ATOM     11  O   UNL     1      -4.642 -11.748 -14.359  1.00  0.00    -0.370 OA
ATOM     12  O   UNL     1      -5.144 -13.736 -16.682  1.00  0.00    -0.342 OA
ATOM     13  C   UNL     1      -5.362 -11.213 -15.500  1.00  0.00    +0.184 C 
ATOM     14  C   UNL     1      -6.355 -13.498 -15.974  1.00  0.00    +0.279 C 
ATOM     15  C   UNL     1      -6.658 -12.004 -15.726  1.00  0.00    +0.202 C 
BRANCH  14  16
ATOM     16  O   UNL     1      -6.309 -14.207 -14.738  1.00  0.00    -0.366 OA
ATOM     17  H   UNL     1      -7.239 -14.262 -14.453  1.00  0.00    +0.213 HD
ENDBRANCH  14  16
BRANCH  15  18
ATOM     18  O   UNL     1      -7.541 -11.841 -14.608  1.00  0.00    -0.385 OA
ATOM     19  H   UNL     1      -7.404 -10.909 -14.332  1.00  0.00    +0.211 HD
ENDBRANCH  15  18
ENDBRANCH   7   8
ENDBRANCH   1   7
BRANCH   2  20
ATOM     20  O   UNL     1      -6.808  -9.886 -20.008  1.00  0.00    -0.385 OA
ATOM     21  H   UNL     1      -7.176  -9.639 -19.137  1.00  0.00    +0.211 HD
ENDBRANCH   2  20
BRANCH   3  22
ATOM     22  O   UNL     1      -5.331  -8.400 -21.831  1.00  0.00    -0.387 OA
ATOM     23  H   UNL     1      -5.972  -7.658 -21.808  1.00  0.00    +0.211 HD
ENDBRANCH   3  22
BRANCH   5  24
ATOM     24  C   UNL     1      -2.069 -10.557 -19.430  1.00  0.00    +0.220 C 
BRANCH  24  25
ATOM     25  O   UNL     1      -0.814 -10.331 -20.068  1.00  0.00    -0.245 OA
BRANCH  25  26
ATOM     26  S   UNL     1       0.445 -11.246 -19.606  1.00  0.00    +0.397 S 
ATOM     27  O   UNL     1       0.763 -12.206 -20.639  1.00  0.00    -0.169 OA
ATOM     28  O   UNL     1       0.242 -11.635 -18.229  1.00  0.00    -0.169 OA
BRANCH  26  29
ATOM     29  O   UNL     1       1.639 -10.168 -19.557  1.00  0.00    -0.264 OA
ATOM     30  H   UNL     1       2.104 -10.218 -20.416  1.00  0.00    +0.236 HD
ENDBRANCH  26  29
ENDBRANCH  25  26
ENDBRANCH  24  25
ENDBRANCH   5  24
BRANCH   4  31
ATOM     31  O   UNL     1      -2.858  -9.157 -21.655  1.00  0.00    -0.387 OA
ATOM     32  H   UNL     1      -3.614  -9.697 -21.977  1.00  0.00    +0.211 HD
ENDBRANCH   4  31
TORSDOF 11
ENDMDL
