MODEL 1
REMARK VINA RESULT:    -7.569      0.000      0.000
REMARK INTER + INTRA:         -12.100
REMARK INTER:                 -11.109
REMARK INTRA:                  -0.991
REMARK UNBOUND:                -0.991
REMARK SMILES O=S(=O)(O)OC[C@@H]1O[C@H](O[C@H]2[C@@H]3OC[C@H]2O[C@@H](O)[C@H]3O)[C@@H](O)[C@H](O)[C@@H]1O
REMARK SMILES IDX 9 1 21 2 23 3 25 4 7 5 8 6 10 7 11 8 14 9 15 10 13 11 16 12
REMARK SMILES IDX 12 13 17 14 19 15 18 16 20 18 22 20 24 22 6 24 5 25 2 26
REMARK SMILES IDX 1 27 3 28 4 29 26 31
REMARK H PARENT 18 17 20 19 22 21 24 23 4 30 26 32
ROOT
ATOM      1  C   UNL     1       1.571 -14.752  -0.031  1.00  0.00    +0.282 C 
ATOM      2  C   UNL     1       0.334 -14.428  -0.891  1.00  0.00    +0.202 C 
ATOM      3  C   UNL     1       0.373 -12.950  -1.240  1.00  0.00    +0.179 C 
ATOM      4  C   UNL     1       1.596 -12.669  -2.118  1.00  0.00    +0.177 C 
ATOM      5  C   UNL     1       2.832 -13.510  -1.716  1.00  0.00    +0.180 C 
ATOM      6  O   UNL     1       2.741 -14.009  -0.368  1.00  0.00    -0.341 OA
ENDROOT
BRANCH   1   7
ATOM      7  O   UNL     1       1.773 -16.167  -0.071  1.00  0.00    -0.341 OA
BRANCH   7   8
ATOM      8  C   UNL     1       2.043 -16.726   1.211  1.00  0.00    +0.184 C 
ATOM      9  C   UNL     1       2.465 -18.530   2.646  1.00  0.00    +0.195 C 
ATOM     10  C   UNL     1       2.641 -18.124   1.182  1.00  0.00    +0.179 C 
ATOM     11  O   UNL     1       1.247 -17.882   3.094  1.00  0.00    -0.370 OA
ATOM     12  O   UNL     1       1.913 -18.963   0.267  1.00  0.00    -0.342 OA
ATOM     13  C   UNL     1       0.777 -17.073   1.984  1.00  0.00    +0.184 C 
ATOM     14  C   UNL     1       0.529 -19.147   0.546  1.00  0.00    +0.279 C 
ATOM     15  C   UNL     1      -0.176 -17.890   1.101  1.00  0.00    +0.202 C 
BRANCH  14  16
ATOM     16  O   UNL     1       0.387 -20.237   1.454  1.00  0.00    -0.366 OA
ATOM     17  H   UNL     1       1.274 -20.637   1.496  1.00  0.00    +0.213 HD
ENDBRANCH  14  16
BRANCH  15  18
ATOM     18  O   UNL     1      -1.353 -18.248   1.836  1.00  0.00    -0.385 OA
ATOM     19  H   UNL     1      -2.080 -18.144   1.185  1.00  0.00    +0.211 HD
ENDBRANCH  15  18
ENDBRANCH   7   8
ENDBRANCH   1   7
BRANCH   2  20
ATOM     20  O   UNL     1      -0.886 -14.714  -0.186  1.00  0.00    -0.385 OA
ATOM     21  H   UNL     1      -1.016 -15.680  -0.253  1.00  0.00    +0.211 HD
ENDBRANCH   2  20
BRANCH   3  22
ATOM     22  O   UNL     1      -0.817 -12.571  -1.952  1.00  0.00    -0.387 OA
ATOM     23  H   UNL     1      -1.019 -11.665  -1.636  1.00  0.00    +0.211 HD
ENDBRANCH   3  22
BRANCH   5  24
ATOM     24  C   UNL     1       3.219 -14.619  -2.712  1.00  0.00    +0.220 C 
BRANCH  24  25
ATOM     25  O   UNL     1       4.315 -14.158  -3.499  1.00  0.00    -0.245 OA
BRANCH  25  26
ATOM     26  S   UNL     1       5.757 -14.870  -3.279  1.00  0.00    +0.397 S 
ATOM     27  O   UNL     1       5.802 -16.126  -3.994  1.00  0.00    -0.169 OA
ATOM     28  O   UNL     1       6.105 -14.768  -1.880  1.00  0.00    -0.169 OA
BRANCH  26  29
ATOM     29  O   UNL     1       6.752 -13.847  -4.024  1.00  0.00    -0.264 OA
ATOM     30  H   UNL     1       7.358 -13.492  -3.343  1.00  0.00    +0.236 HD
ENDBRANCH  26  29
ENDBRANCH  25  26
ENDBRANCH  24  25
ENDBRANCH   5  24
BRANCH   4  31
ATOM     31  O   UNL     1       1.246 -12.877  -3.491  1.00  0.00    -0.387 OA
ATOM     32  H   UNL     1       0.265 -12.941  -3.492  1.00  0.00    +0.211 HD
ENDBRANCH   4  31
TORSDOF 11
ENDMDL
MODEL 2
REMARK VINA RESULT:    -7.343      3.074      5.613
REMARK INTER + INTRA:         -11.768
REMARK INTER:                 -10.003
REMARK INTRA:                  -1.765
REMARK UNBOUND:                -0.991
REMARK SMILES O=S(=O)(O)OC[C@@H]1O[C@H](O[C@H]2[C@@H]3OC[C@H]2O[C@@H](O)[C@H]3O)[C@@H](O)[C@H](O)[C@@H]1O
REMARK SMILES IDX 9 1 21 2 23 3 25 4 7 5 8 6 10 7 11 8 14 9 15 10 13 11 16 12
REMARK SMILES IDX 12 13 17 14 19 15 18 16 20 18 22 20 24 22 6 24 5 25 2 26
REMARK SMILES IDX 1 27 3 28 4 29 26 31
REMARK H PARENT 18 17 20 19 22 21 24 23 4 30 26 32
ROOT
ATOM      1  C   UNL     1       5.142 -15.214  -1.983  1.00  0.00    +0.282 C 
ATOM      2  C   UNL     1       6.117 -14.129  -2.479  1.00  0.00    +0.202 C 
ATOM      3  C   UNL     1       6.246 -14.261  -3.987  1.00  0.00    +0.179 C 
ATOM      4  C   UNL     1       4.894 -13.958  -4.638  1.00  0.00    +0.177 C 
ATOM      5  C   UNL     1       3.695 -14.480  -3.810  1.00  0.00    +0.180 C 
ATOM      6  O   UNL     1       4.078 -15.515  -2.884  1.00  0.00    -0.341 OA
ENDROOT
BRANCH   1   7
ATOM      7  O   UNL     1       4.686 -14.831  -0.682  1.00  0.00    -0.341 OA
BRANCH   7   8
ATOM      8  C   UNL     1       5.082 -15.744   0.336  1.00  0.00    +0.184 C 
ATOM      9  C   UNL     1       4.952 -16.625   2.505  1.00  0.00    +0.195 C 
ATOM     10  C   UNL     1       4.086 -15.896   1.476  1.00  0.00    +0.179 C 
ATOM     11  O   UNL     1       6.303 -16.133   2.305  1.00  0.00    -0.370 OA
ATOM     12  O   UNL     1       3.634 -14.606   1.924  1.00  0.00    -0.342 OA
ATOM     13  C   UNL     1       6.251 -15.231   1.169  1.00  0.00    +0.184 C 
ATOM     14  C   UNL     1       4.636 -13.721   2.413  1.00  0.00    +0.279 C 
ATOM     15  C   UNL     1       5.974 -13.798   1.644  1.00  0.00    +0.202 C 
BRANCH  14  16
ATOM     16  O   UNL     1       4.843 -13.985   3.798  1.00  0.00    -0.366 OA
ATOM     17  H   UNL     1       3.976 -14.288   4.121  1.00  0.00    +0.213 HD
ENDBRANCH  14  16
BRANCH  15  18
ATOM     18  O   UNL     1       7.057 -13.325   2.457  1.00  0.00    -0.385 OA
ATOM     19  H   UNL     1       6.616 -12.998   3.270  1.00  0.00    +0.211 HD
ENDBRANCH  15  18
ENDBRANCH   7   8
ENDBRANCH   1   7
BRANCH   2  20
ATOM     20  O   UNL     1       7.416 -14.276  -1.879  1.00  0.00    -0.385 OA
ATOM     21  H   UNL     1       7.326 -14.982  -1.210  1.00  0.00    +0.211 HD
ENDBRANCH   2  20
BRANCH   3  22
ATOM     22  O   UNL     1       7.230 -13.340  -4.488  1.00  0.00    -0.387 OA
ATOM     23  H   UNL     1       6.900 -13.080  -5.374  1.00  0.00    +0.211 HD
ENDBRANCH   3  22
BRANCH   5  24
ATOM     24  C   UNL     1       2.846 -13.390  -3.132  1.00  0.00    +0.220 C 
BRANCH  24  25
ATOM     25  O   UNL     1       1.560 -13.932  -2.842  1.00  0.00    -0.245 OA
BRANCH  25  26
ATOM     26  S   UNL     1       1.169 -14.161  -1.283  1.00  0.00    +0.397 S 
ATOM     27  O   UNL     1       1.390 -15.542  -0.916  1.00  0.00    -0.169 OA
ATOM     28  O   UNL     1      -0.083 -13.486  -1.026  1.00  0.00    -0.169 OA
BRANCH  26  29
ATOM     29  O   UNL     1       2.277 -13.272  -0.527  1.00  0.00    -0.264 OA
ATOM     30  H   UNL     1       2.762 -12.774  -1.216  1.00  0.00    +0.236 HD
ENDBRANCH  26  29
ENDBRANCH  25  26
ENDBRANCH  24  25
ENDBRANCH   5  24
BRANCH   4  31
ATOM     31  O   UNL     1       4.792 -12.550  -4.876  1.00  0.00    -0.387 OA
ATOM     32  H   UNL     1       5.598 -12.323  -5.392  1.00  0.00    +0.211 HD
ENDBRANCH   4  31
TORSDOF 11
ENDMDL
MODEL 3
REMARK VINA RESULT:    -6.849      2.311      3.371
REMARK INTER + INTRA:         -11.044
REMARK INTER:                  -9.974
REMARK INTRA:                  -1.070
REMARK UNBOUND:                -0.991
REMARK SMILES O=S(=O)(O)OC[C@@H]1O[C@H](O[C@H]2[C@@H]3OC[C@H]2O[C@@H](O)[C@H]3O)[C@@H](O)[C@H](O)[C@@H]1O
REMARK SMILES IDX 9 1 21 2 23 3 25 4 7 5 8 6 10 7 11 8 14 9 15 10 13 11 16 12
REMARK SMILES IDX 12 13 17 14 19 15 18 16 20 18 22 20 24 22 6 24 5 25 2 26
REMARK SMILES IDX 1 27 3 28 4 29 26 31
REMARK H PARENT 18 17 20 19 22 21 24 23 4 30 26 32
ROOT
ATOM      1  C   UNL     1       2.326 -15.489   0.338  1.00  0.00    +0.282 C 
ATOM      2  C   UNL     1       1.083 -15.663  -0.556  1.00  0.00    +0.202 C 
ATOM      3  C   UNL     1       0.344 -14.337  -0.605  1.00  0.00    +0.179 C 
ATOM      4  C   UNL     1       1.227 -13.291  -1.290  1.00  0.00    +0.177 C 
ATOM      5  C   UNL     1       2.727 -13.448  -0.945  1.00  0.00    +0.180 C 
ATOM      6  O   UNL     1       2.935 -14.201   0.266  1.00  0.00    -0.341 OA
ENDROOT
BRANCH   1   7
ATOM      7  O   UNL     1       3.231 -16.556   0.043  1.00  0.00    -0.341 OA
BRANCH   7   8
ATOM      8  C   UNL     1       3.308 -17.524   1.084  1.00  0.00    +0.184 C 
ATOM      9  C   UNL     1       4.028 -18.260   3.190  1.00  0.00    +0.195 C 
ATOM     10  C   UNL     1       3.704 -16.966   2.443  1.00  0.00    +0.179 C 
ATOM     11  O   UNL     1       4.566 -19.168   2.193  1.00  0.00    -0.370 OA
ATOM     12  O   UNL     1       4.833 -16.084   2.314  1.00  0.00    -0.342 OA
ATOM     13  C   UNL     1       4.484 -18.480   0.919  1.00  0.00    +0.184 C 
ATOM     14  C   UNL     1       6.022 -16.656   1.779  1.00  0.00    +0.279 C 
ATOM     15  C   UNL     1       5.775 -17.691   0.659  1.00  0.00    +0.202 C 
BRANCH  14  16
ATOM     16  O   UNL     1       6.766 -17.243   2.843  1.00  0.00    -0.366 OA
ATOM     17  H   UNL     1       6.110 -17.392   3.547  1.00  0.00    +0.213 HD
ENDBRANCH  14  16
BRANCH  15  18
ATOM     18  O   UNL     1       6.889 -18.586   0.538  1.00  0.00    -0.385 OA
ATOM     19  H   UNL     1       7.137 -18.782   1.467  1.00  0.00    +0.211 HD
ENDBRANCH  15  18
ENDBRANCH   7   8
ENDBRANCH   1   7
BRANCH   2  20
ATOM     20  O   UNL     1       0.203 -16.676  -0.039  1.00  0.00    -0.385 OA
ATOM     21  H   UNL     1       0.643 -17.531  -0.212  1.00  0.00    +0.211 HD
ENDBRANCH   2  20
BRANCH   3  22
ATOM     22  O   UNL     1      -0.884 -14.474  -1.339  1.00  0.00    -0.387 OA
ATOM     23  H   UNL     1      -0.883 -13.725  -1.971  1.00  0.00    +0.211 HD
ENDBRANCH   3  22
BRANCH   5  24
ATOM     24  C   UNL     1       3.612 -13.959  -2.097  1.00  0.00    +0.220 C 
BRANCH  24  25
ATOM     25  O   UNL     1       4.861 -13.274  -2.046  1.00  0.00    -0.245 OA
BRANCH  25  26
ATOM     26  S   UNL     1       6.161 -14.106  -1.545  1.00  0.00    +0.397 S 
ATOM     27  O   UNL     1       6.058 -15.485  -1.966  1.00  0.00    -0.169 OA
ATOM     28  O   UNL     1       6.435 -13.738  -0.174  1.00  0.00    -0.169 OA
BRANCH  26  29
ATOM     29  O   UNL     1       7.344 -13.422  -2.397  1.00  0.00    -0.264 OA
ATOM     30  H   UNL     1       6.925 -12.763  -2.987  1.00  0.00    +0.236 HD
ENDBRANCH  26  29
ENDBRANCH  25  26
ENDBRANCH  24  25
ENDBRANCH   5  24
BRANCH   4  31
ATOM     31  O   UNL     1       1.007 -13.345  -2.704  1.00  0.00    -0.387 OA
ATOM     32  H   UNL     1       1.585 -12.642  -3.076  1.00  0.00    +0.211 HD
ENDBRANCH   4  31
TORSDOF 11
ENDMDL
MODEL 4
REMARK VINA RESULT:    -6.778      3.017      5.641
REMARK INTER + INTRA:         -10.939
REMARK INTER:                 -10.161
REMARK INTRA:                  -0.778
REMARK UNBOUND:                -0.991
REMARK SMILES O=S(=O)(O)OC[C@@H]1O[C@H](O[C@H]2[C@@H]3OC[C@H]2O[C@@H](O)[C@H]3O)[C@@H](O)[C@H](O)[C@@H]1O
REMARK SMILES IDX 9 1 21 2 23 3 25 4 7 5 8 6 10 7 11 8 14 9 15 10 13 11 16 12
REMARK SMILES IDX 12 13 17 14 19 15 18 16 20 18 22 20 24 22 6 24 5 25 2 26
REMARK SMILES IDX 1 27 3 28 4 29 26 31
REMARK H PARENT 18 17 20 19 22 21 24 23 4 30 26 32
ROOT
ATOM      1  C   UNL     1       4.150 -14.689  -1.453  1.00  0.00    +0.282 C 
ATOM      2  C   UNL     1       3.981 -13.208  -1.844  1.00  0.00    +0.202 C 
ATOM      3  C   UNL     1       3.687 -13.142  -3.333  1.00  0.00    +0.179 C 
ATOM      4  C   UNL     1       2.343 -13.820  -3.614  1.00  0.00    +0.177 C 
ATOM      5  C   UNL     1       2.097 -15.062  -2.724  1.00  0.00    +0.180 C 
ATOM      6  O   UNL     1       3.318 -15.594  -2.176  1.00  0.00    -0.341 OA
ENDROOT
BRANCH   1   7
ATOM      7  O   UNL     1       3.989 -14.788  -0.035  1.00  0.00    -0.341 OA
BRANCH   7   8
ATOM      8  C   UNL     1       4.587 -15.959   0.512  1.00  0.00    +0.184 C 
ATOM      9  C   UNL     1       5.888 -17.079   2.108  1.00  0.00    +0.195 C 
ATOM     10  C   UNL     1       5.000 -15.841   1.971  1.00  0.00    +0.179 C 
ATOM     11  O   UNL     1       6.520 -17.259   0.815  1.00  0.00    -0.370 OA
ATOM     12  O   UNL     1       5.705 -14.607   2.194  1.00  0.00    -0.342 OA
ATOM     13  C   UNL     1       5.973 -16.237  -0.059  1.00  0.00    +0.184 C 
ATOM     14  C   UNL     1       6.902 -14.419   1.446  1.00  0.00    +0.279 C 
ATOM     15  C   UNL     1       6.836 -14.970   0.004  1.00  0.00    +0.202 C 
BRANCH  14  16
ATOM     16  O   UNL     1       7.984 -15.016   2.156  1.00  0.00    -0.366 OA
ATOM     17  H   UNL     1       8.359 -14.289   2.685  1.00  0.00    +0.213 HD
ENDBRANCH  14  16
BRANCH  15  18
ATOM     18  O   UNL     1       8.151 -15.237  -0.500  1.00  0.00    -0.385 OA
ATOM     19  H   UNL     1       8.539 -14.346  -0.635  1.00  0.00    +0.211 HD
ENDBRANCH  15  18
ENDBRANCH   7   8
ENDBRANCH   1   7
BRANCH   2  20
ATOM     20  O   UNL     1       5.171 -12.452  -1.564  1.00  0.00    -0.385 OA
ATOM     21  H   UNL     1       5.206 -12.353  -0.592  1.00  0.00    +0.211 HD
ENDBRANCH   2  20
BRANCH   3  22
ATOM     22  O   UNL     1       3.628 -11.774  -3.772  1.00  0.00    -0.387 OA
ATOM     23  H   UNL     1       3.823 -11.811  -4.732  1.00  0.00    +0.211 HD
ENDBRANCH   3  22
BRANCH   5  24
ATOM     24  C   UNL     1       1.012 -14.888  -1.645  1.00  0.00    +0.220 C 
BRANCH  24  25
ATOM     25  O   UNL     1       0.790 -16.149  -1.019  1.00  0.00    -0.245 OA
BRANCH  25  26
ATOM     26  S   UNL     1       0.649 -16.177   0.598  1.00  0.00    +0.397 S 
ATOM     27  O   UNL     1       0.805 -14.842   1.131  1.00  0.00    -0.169 OA
ATOM     28  O   UNL     1       1.408 -17.299   1.101  1.00  0.00    -0.169 OA
BRANCH  26  29
ATOM     29  O   UNL     1      -0.891 -16.603   0.791  1.00  0.00    -0.264 OA
ATOM     30  H   UNL     1      -1.403 -15.778   0.912  1.00  0.00    +0.236 HD
ENDBRANCH  26  29
ENDBRANCH  25  26
ENDBRANCH  24  25
ENDBRANCH   5  24
BRANCH   4  31
ATOM     31  O   UNL     1       1.292 -12.857  -3.470  1.00  0.00    -0.387 OA
ATOM     32  H   UNL     1       1.747 -12.028  -3.201  1.00  0.00    +0.211 HD
ENDBRANCH   4  31
TORSDOF 11
ENDMDL
MODEL 5
REMARK VINA RESULT:    -6.702      2.382      6.422
REMARK INTER + INTRA:         -10.827
REMARK INTER:                  -9.925
REMARK INTRA:                  -0.902
REMARK UNBOUND:                -0.991
REMARK SMILES O=S(=O)(O)OC[C@@H]1O[C@H](O[C@H]2[C@@H]3OC[C@H]2O[C@@H](O)[C@H]3O)[C@@H](O)[C@H](O)[C@@H]1O
REMARK SMILES IDX 9 1 21 2 23 3 25 4 7 5 8 6 10 7 11 8 14 9 15 10 13 11 16 12
REMARK SMILES IDX 12 13 17 14 19 15 18 16 20 18 22 20 24 22 6 24 5 25 2 26
REMARK SMILES IDX 1 27 3 28 4 29 26 31
REMARK H PARENT 18 17 20 19 22 21 24 23 4 30 26 32
ROOT
ATOM      1  C   UNL     1       1.957 -16.000  -1.067  1.00  0.00    +0.282 C 
ATOM      2  C   UNL     1       2.090 -15.511   0.388  1.00  0.00    +0.202 C 
ATOM      3  C   UNL     1       0.895 -16.026   1.173  1.00  0.00    +0.179 C 
ATOM      4  C   UNL     1       0.944 -17.555   1.224  1.00  0.00    +0.177 C 
ATOM      5  C   UNL     1       1.472 -18.186  -0.087  1.00  0.00    +0.180 C 
ATOM      6  O   UNL     1       1.363 -17.289  -1.209  1.00  0.00    -0.341 OA
ENDROOT
BRANCH   1   7
ATOM      7  O   UNL     1       3.246 -15.905  -1.680  1.00  0.00    -0.341 OA
BRANCH   7   8
ATOM      8  C   UNL     1       3.271 -15.002  -2.781  1.00  0.00    +0.184 C 
ATOM      9  C   UNL     1       4.315 -13.999  -4.625  1.00  0.00    +0.195 C 
ATOM     10  C   UNL     1       4.333 -15.304  -3.828  1.00  0.00    +0.179 C 
ATOM     11  O   UNL     1       4.005 -12.954  -3.668  1.00  0.00    -0.370 OA
ATOM     12  O   UNL     1       5.599 -15.570  -3.197  1.00  0.00    -0.342 OA
ATOM     13  C   UNL     1       3.770 -13.613  -2.396  1.00  0.00    +0.184 C 
ATOM     14  C   UNL     1       6.139 -14.520  -2.402  1.00  0.00    +0.279 C 
ATOM     15  C   UNL     1       5.082 -13.722  -1.607  1.00  0.00    +0.202 C 
BRANCH  14  16
ATOM     16  O   UNL     1       6.888 -13.647  -3.245  1.00  0.00    -0.366 OA
ATOM     17  H   UNL     1       7.706 -13.470  -2.747  1.00  0.00    +0.213 HD
ENDBRANCH  14  16
BRANCH  15  18
ATOM     18  O   UNL     1       5.572 -12.417  -1.274  1.00  0.00    -0.385 OA
ATOM     19  H   UNL     1       5.856 -12.044  -2.135  1.00  0.00    +0.211 HD
ENDBRANCH  15  18
ENDBRANCH   7   8
ENDBRANCH   1   7
BRANCH   2  20
ATOM     20  O   UNL     1       2.120 -14.075   0.460  1.00  0.00    -0.385 OA
ATOM     21  H   UNL     1       2.473 -13.769  -0.399  1.00  0.00    +0.211 HD
ENDBRANCH   2  20
BRANCH   3  22
ATOM     22  O   UNL     1       0.914 -15.506   2.513  1.00  0.00    -0.387 OA
ATOM     23  H   UNL     1       0.710 -16.278   3.083  1.00  0.00    +0.211 HD
ENDBRANCH   3  22
BRANCH   5  24
ATOM     24  C   UNL     1       2.873 -18.815   0.009  1.00  0.00    +0.220 C 
BRANCH  24  25
ATOM     25  O   UNL     1       3.310 -19.151  -1.306  1.00  0.00    -0.245 OA
BRANCH  25  26
ATOM     26  S   UNL     1       3.453 -20.725  -1.678  1.00  0.00    +0.397 S 
ATOM     27  O   UNL     1       3.947 -21.459  -0.535  1.00  0.00    -0.169 OA
ATOM     28  O   UNL     1       4.064 -20.829  -2.983  1.00  0.00    -0.169 OA
BRANCH  26  29
ATOM     29  O   UNL     1       1.919 -21.154  -1.908  1.00  0.00    -0.264 OA
ATOM     30  H   UNL     1       1.888 -21.665  -2.742  1.00  0.00    +0.236 HD
ENDBRANCH  26  29
ENDBRANCH  25  26
ENDBRANCH  24  25
ENDBRANCH   5  24
BRANCH   4  31
ATOM     31  O   UNL     1       1.727 -17.962   2.352  1.00  0.00    -0.387 OA
ATOM     32  H   UNL     1       1.443 -17.367   3.082  1.00  0.00    +0.211 HD
ENDBRANCH   4  31
TORSDOF 11
ENDMDL
MODEL 6
REMARK VINA RESULT:    -6.568     35.501     37.086
REMARK INTER + INTRA:         -10.631
REMARK INTER:                  -8.907
REMARK INTRA:                  -1.724
REMARK UNBOUND:                -0.991
REMARK SMILES O=S(=O)(O)OC[C@@H]1O[C@H](O[C@H]2[C@@H]3OC[C@H]2O[C@@H](O)[C@H]3O)[C@@H](O)[C@H](O)[C@@H]1O
REMARK SMILES IDX 9 1 21 2 23 3 25 4 7 5 8 6 10 7 11 8 14 9 15 10 13 11 16 12
REMARK SMILES IDX 12 13 17 14 19 15 18 16 20 18 22 20 24 22 6 24 5 25 2 26
REMARK SMILES IDX 1 27 3 28 4 29 26 31
REMARK H PARENT 18 17 20 19 22 21 24 23 4 30 26 32
ROOT
ATOM      1  C   UNL     1      -0.400  11.630  22.516  1.00  0.00    +0.282 C 
ATOM      2  C   UNL     1       1.065  11.665  22.993  1.00  0.00    +0.202 C 
ATOM      3  C   UNL     1       1.824  12.651  22.123  1.00  0.00    +0.179 C 
ATOM      4  C   UNL     1       1.263  14.059  22.345  1.00  0.00    +0.177 C 
ATOM      5  C   UNL     1      -0.270  14.070  22.554  1.00  0.00    +0.180 C 
ATOM      6  O   UNL     1      -0.902  12.880  22.045  1.00  0.00    -0.341 OA
ENDROOT
BRANCH   1   7
ATOM      7  O   UNL     1      -1.190  11.068  23.568  1.00  0.00    -0.341 OA
BRANCH   7   8
ATOM      8  C   UNL     1      -1.735   9.796  23.233  1.00  0.00    +0.184 C 
ATOM      9  C   UNL     1      -3.353   8.111  23.425  1.00  0.00    +0.195 C 
ATOM     10  C   UNL     1      -3.208   9.626  23.570  1.00  0.00    +0.179 C 
ATOM     11  O   UNL     1      -2.078   7.550  23.831  1.00  0.00    -0.370 OA
ATOM     12  O   UNL     1      -3.476  10.099  24.902  1.00  0.00    -0.342 OA
ATOM     13  C   UNL     1      -1.204   8.673  24.118  1.00  0.00    +0.184 C 
ATOM     14  C   UNL     1      -2.770   9.451  25.955  1.00  0.00    +0.279 C 
ATOM     15  C   UNL     1      -1.317   9.066  25.597  1.00  0.00    +0.202 C 
BRANCH  14  16
ATOM     16  O   UNL     1      -3.505   8.297  26.356  1.00  0.00    -0.366 OA
ATOM     17  H   UNL     1      -3.914   8.550  27.203  1.00  0.00    +0.213 HD
ENDBRANCH  14  16
BRANCH  15  18
ATOM     18  O   UNL     1      -0.852   7.999  26.433  1.00  0.00    -0.385 OA
ATOM     19  H   UNL     1      -1.009   8.326  27.344  1.00  0.00    +0.211 HD
ENDBRANCH  15  18
ENDBRANCH   7   8
ENDBRANCH   1   7
BRANCH   2  20
ATOM     20  O   UNL     1       1.682  10.370  22.888  1.00  0.00    -0.385 OA
ATOM     21  H   UNL     1       0.972   9.753  22.621  1.00  0.00    +0.211 HD
ENDBRANCH   2  20
BRANCH   3  22
ATOM     22  O   UNL     1       3.223  12.641  22.455  1.00  0.00    -0.387 OA
ATOM     23  H   UNL     1       3.290  12.048  23.233  1.00  0.00    +0.211 HD
ENDBRANCH   3  22
BRANCH   5  24
ATOM     24  C   UNL     1      -0.731  14.396  23.987  1.00  0.00    +0.220 C 
BRANCH  24  25
ATOM     25  O   UNL     1      -2.107  14.765  23.946  1.00  0.00    -0.245 OA
BRANCH  25  26
ATOM     26  S   UNL     1      -3.158  13.863  24.793  1.00  0.00    +0.397 S 
ATOM     27  O   UNL     1      -3.988  13.095  23.892  1.00  0.00    -0.169 OA
ATOM     28  O   UNL     1      -3.716  14.682  25.844  1.00  0.00    -0.169 OA
BRANCH  26  29
ATOM     29  O   UNL     1      -2.179  12.834  25.551  1.00  0.00    -0.264 OA
ATOM     30  H   UNL     1      -2.718  12.372  26.225  1.00  0.00    +0.236 HD
ENDBRANCH  26  29
ENDBRANCH  25  26
ENDBRANCH  24  25
ENDBRANCH   5  24
BRANCH   4  31
ATOM     31  O   UNL     1       1.946  14.667  23.447  1.00  0.00    -0.387 OA
ATOM     32  H   UNL     1       2.378  13.919  23.919  1.00  0.00    +0.211 HD
ENDBRANCH   4  31
TORSDOF 11
ENDMDL
MODEL 7
REMARK VINA RESULT:    -6.456     26.137     28.839
REMARK INTER + INTRA:         -10.467
REMARK INTER:                  -9.391
REMARK INTRA:                  -1.077
REMARK UNBOUND:                -0.991
REMARK SMILES O=S(=O)(O)OC[C@@H]1O[C@H](O[C@H]2[C@@H]3OC[C@H]2O[C@@H](O)[C@H]3O)[C@@H](O)[C@H](O)[C@@H]1O
REMARK SMILES IDX 9 1 21 2 23 3 25 4 7 5 8 6 10 7 11 8 14 9 15 10 13 11 16 12
REMARK SMILES IDX 12 13 17 14 19 15 18 16 20 18 22 20 24 22 6 24 5 25 2 26
REMARK SMILES IDX 1 27 3 28 4 29 26 31
REMARK H PARENT 18 17 20 19 22 21 24 23 4 30 26 32
ROOT
ATOM      1  C   UNL     1       3.263   6.405 -16.695  1.00  0.00    +0.282 C 
ATOM      2  C   UNL     1       3.887   5.935 -15.367  1.00  0.00    +0.202 C 
ATOM      3  C   UNL     1       5.391   6.130 -15.455  1.00  0.00    +0.179 C 
ATOM      4  C   UNL     1       5.702   7.625 -15.574  1.00  0.00    +0.177 C 
ATOM      5  C   UNL     1       4.665   8.389 -16.432  1.00  0.00    +0.180 C 
ATOM      6  O   UNL     1       3.923   7.514 -17.303  1.00  0.00    -0.341 OA
ENDROOT
BRANCH   1   7
ATOM      7  O   UNL     1       1.870   6.636 -16.467  1.00  0.00    -0.341 OA
BRANCH   7   8
ATOM      8  C   UNL     1       1.251   7.376 -17.514  1.00  0.00    +0.184 C 
ATOM      9  C   UNL     1      -0.606   8.375 -18.538  1.00  0.00    +0.195 C 
ATOM     10  C   UNL     1      -0.092   7.991 -17.150  1.00  0.00    +0.179 C 
ATOM     11  O   UNL     1      -0.086   7.369 -19.445  1.00  0.00    -0.370 OA
ATOM     12  O   UNL     1      -0.922   7.025 -16.481  1.00  0.00    -0.342 OA
ATOM     13  C   UNL     1       0.755   6.492 -18.652  1.00  0.00    +0.184 C 
ATOM     14  C   UNL     1      -1.232   5.845 -17.215  1.00  0.00    +0.279 C 
ATOM     15  C   UNL     1      -0.073   5.326 -18.094  1.00  0.00    +0.202 C 
BRANCH  14  16
ATOM     16  O   UNL     1      -2.387   6.093 -18.013  1.00  0.00    -0.366 OA
ATOM     17  H   UNL     1      -2.142   5.781 -18.902  1.00  0.00    +0.213 HD
ENDBRANCH  14  16
BRANCH  15  18
ATOM     18  O   UNL     1      -0.569   4.511 -19.165  1.00  0.00    -0.385 OA
ATOM     19  H   UNL     1      -1.054   5.144 -19.737  1.00  0.00    +0.211 HD
ENDBRANCH  15  18
ENDBRANCH   7   8
ENDBRANCH   1   7
BRANCH   2  20
ATOM     20  O   UNL     1       3.605   4.548 -15.116  1.00  0.00    -0.385 OA
ATOM     21  H   UNL     1       2.669   4.413 -15.363  1.00  0.00    +0.211 HD
ENDBRANCH   2  20
BRANCH   3  22
ATOM     22  O   UNL     1       6.034   5.605 -14.281  1.00  0.00    -0.387 OA
ATOM     23  H   UNL     1       5.458   4.868 -13.988  1.00  0.00    +0.211 HD
ENDBRANCH   3  22
BRANCH   5  24
ATOM     24  C   UNL     1       3.740   9.337 -15.647  1.00  0.00    +0.220 C 
BRANCH  24  25
ATOM     25  O   UNL     1       2.992  10.114 -16.580  1.00  0.00    -0.245 OA
BRANCH  25  26
ATOM     26  S   UNL     1       1.954  11.213 -15.989  1.00  0.00    +0.397 S 
ATOM     27  O   UNL     1       1.016  11.608 -17.015  1.00  0.00    -0.169 OA
ATOM     28  O   UNL     1       2.706  12.179 -15.220  1.00  0.00    -0.169 OA
BRANCH  26  29
ATOM     29  O   UNL     1       1.147  10.355 -14.892  1.00  0.00    -0.264 OA
ATOM     30  H   UNL     1       1.350  10.746 -14.018  1.00  0.00    +0.236 HD
ENDBRANCH  26  29
ENDBRANCH  25  26
ENDBRANCH  24  25
ENDBRANCH   5  24
BRANCH   4  31
ATOM     31  O   UNL     1       5.811   8.187 -14.262  1.00  0.00    -0.387 OA
ATOM     32  H   UNL     1       6.368   8.989 -14.378  1.00  0.00    +0.211 HD
ENDBRANCH   4  31
TORSDOF 11
ENDMDL
MODEL 8
REMARK VINA RESULT:    -6.227     44.319     46.245
REMARK INTER + INTRA:         -10.131
REMARK INTER:                  -9.147
REMARK INTRA:                  -0.984
REMARK UNBOUND:                -0.991
REMARK SMILES O=S(=O)(O)OC[C@@H]1O[C@H](O[C@H]2[C@@H]3OC[C@H]2O[C@@H](O)[C@H]3O)[C@@H](O)[C@H](O)[C@@H]1O
REMARK SMILES IDX 9 1 21 2 23 3 25 4 7 5 8 6 10 7 11 8 14 9 15 10 13 11 16 12
REMARK SMILES IDX 12 13 17 14 19 15 18 16 20 18 22 20 24 22 6 24 5 25 2 26
REMARK SMILES IDX 1 27 3 28 4 29 26 31
REMARK H PARENT 18 17 20 19 22 21 24 23 4 30 26 32
ROOT
ATOM      1  C   UNL     1      -4.027   2.330  42.189  1.00  0.00    +0.282 C 
ATOM      2  C   UNL     1      -3.942   2.832  40.735  1.00  0.00    +0.202 C 
ATOM      3  C   UNL     1      -3.234   4.176  40.738  1.00  0.00    +0.179 C 
ATOM      4  C   UNL     1      -1.791   3.987  41.216  1.00  0.00    +0.177 C 
ATOM      5  C   UNL     1      -1.661   2.923  42.332  1.00  0.00    +0.180 C 
ATOM      6  O   UNL     1      -2.910   2.679  43.005  1.00  0.00    -0.341 OA
ENDROOT
BRANCH   1   7
ATOM      7  O   UNL     1      -4.279   0.923  42.153  1.00  0.00    -0.341 OA
BRANCH   7   8
ATOM      8  C   UNL     1      -5.617   0.589  42.505  1.00  0.00    +0.184 C 
ATOM      9  C   UNL     1      -7.227  -0.829  43.450  1.00  0.00    +0.195 C 
ATOM     10  C   UNL     1      -5.744  -0.479  43.581  1.00  0.00    +0.179 C 
ATOM     11  O   UNL     1      -7.550  -0.663  42.045  1.00  0.00    -0.370 OA
ATOM     12  O   UNL     1      -4.870  -1.586  43.296  1.00  0.00    -0.342 OA
ATOM     13  C   UNL     1      -6.350  -0.163  41.400  1.00  0.00    +0.184 C 
ATOM     14  C   UNL     1      -5.090  -2.262  42.063  1.00  0.00    +0.279 C 
ATOM     15  C   UNL     1      -5.493  -1.333  40.897  1.00  0.00    +0.202 C 
BRANCH  14  16
ATOM     16  O   UNL     1      -6.083  -3.266  42.264  1.00  0.00    -0.366 OA
ATOM     17  H   UNL     1      -6.884  -2.771  42.510  1.00  0.00    +0.213 HD
ENDBRANCH  14  16
BRANCH  15  18
ATOM     18  O   UNL     1      -6.194  -2.063  39.882  1.00  0.00    -0.385 OA
ATOM     19  H   UNL     1      -5.637  -1.951  39.082  1.00  0.00    +0.211 HD
ENDBRANCH  15  18
ENDBRANCH   7   8
ENDBRANCH   1   7
BRANCH   2  20
ATOM     20  O   UNL     1      -5.248   2.988  40.155  1.00  0.00    -0.385 OA
ATOM     21  H   UNL     1      -5.167   2.700  39.225  1.00  0.00    +0.211 HD
ENDBRANCH   2  20
BRANCH   3  22
ATOM     22  O   UNL     1      -3.224   4.741  39.416  1.00  0.00    -0.387 OA
ATOM     23  H   UNL     1      -2.500   5.401  39.431  1.00  0.00    +0.211 HD
ENDBRANCH   3  22
BRANCH   5  24
ATOM     24  C   UNL     1      -0.973   1.613  41.907  1.00  0.00    +0.220 C 
BRANCH  24  25
ATOM     25  O   UNL     1       0.423   1.727  42.176  1.00  0.00    -0.245 OA
BRANCH  25  26
ATOM     26  S   UNL     1       0.987   1.058  43.543  1.00  0.00    +0.397 S 
ATOM     27  O   UNL     1       0.034   0.100  44.055  1.00  0.00    -0.169 OA
ATOM     28  O   UNL     1       1.541   2.109  44.367  1.00  0.00    -0.169 OA
BRANCH  26  29
ATOM     29  O   UNL     1       2.266   0.238  43.010  1.00  0.00    -0.264 OA
ATOM     30  H   UNL     1       2.353   0.435  42.056  1.00  0.00    +0.236 HD
ENDBRANCH  26  29
ENDBRANCH  25  26
ENDBRANCH  24  25
ENDBRANCH   5  24
BRANCH   4  31
ATOM     31  O   UNL     1      -0.962   3.671  40.092  1.00  0.00    -0.387 OA
ATOM     32  H   UNL     1      -0.619   2.769  40.278  1.00  0.00    +0.211 HD
ENDBRANCH   4  31
TORSDOF 11
ENDMDL
MODEL 9
REMARK VINA RESULT:    -6.037     34.422     36.200
REMARK INTER + INTRA:          -9.852
REMARK INTER:                  -8.824
REMARK INTRA:                  -1.029
REMARK UNBOUND:                -0.991
REMARK SMILES O=S(=O)(O)OC[C@@H]1O[C@H](O[C@H]2[C@@H]3OC[C@H]2O[C@@H](O)[C@H]3O)[C@@H](O)[C@H](O)[C@@H]1O
REMARK SMILES IDX 9 1 21 2 23 3 25 4 7 5 8 6 10 7 11 8 14 9 15 10 13 11 16 12
REMARK SMILES IDX 12 13 17 14 19 15 18 16 20 18 22 20 24 22 6 24 5 25 2 26
REMARK SMILES IDX 1 27 3 28 4 29 26 31
REMARK H PARENT 18 17 20 19 22 21 24 23 4 30 26 32
ROOT
ATOM      1  C   UNL     1      -1.238  10.949  25.196  1.00  0.00    +0.282 C 
ATOM      2  C   UNL     1      -1.099   9.649  26.010  1.00  0.00    +0.202 C 
ATOM      3  C   UNL     1      -2.254   9.581  26.996  1.00  0.00    +0.179 C 
ATOM      4  C   UNL     1      -3.572   9.470  26.224  1.00  0.00    +0.177 C 
ATOM      5  C   UNL     1      -3.578  10.302  24.919  1.00  0.00    +0.180 C 
ATOM      6  O   UNL     1      -2.582  11.343  24.928  1.00  0.00    -0.341 OA
ENDROOT
BRANCH   1   7
ATOM      7  O   UNL     1      -0.447  10.811  24.012  1.00  0.00    -0.341 OA
BRANCH   7   8
ATOM      8  C   UNL     1      -0.420  11.994  23.220  1.00  0.00    +0.184 C 
ATOM      9  C   UNL     1      -0.244  13.123  21.174  1.00  0.00    +0.195 C 
ATOM     10  C   UNL     1      -0.690  11.774  21.740  1.00  0.00    +0.179 C 
ATOM     11  O   UNL     1       0.847  13.567  22.022  1.00  0.00    -0.370 OA
ATOM     12  O   UNL     1       0.084  10.665  21.247  1.00  0.00    -0.342 OA
ATOM     13  C   UNL     1       0.980  12.579  23.076  1.00  0.00    +0.184 C 
ATOM     14  C   UNL     1       1.498  10.784  21.361  1.00  0.00    +0.279 C 
ATOM     15  C   UNL     1       1.970  11.484  22.654  1.00  0.00    +0.202 C 
BRANCH  14  16
ATOM     16  O   UNL     1       1.993  11.471  20.214  1.00  0.00    -0.366 OA
ATOM     17  H   UNL     1       2.920  11.183  20.138  1.00  0.00    +0.213 HD
ENDBRANCH  14  16
BRANCH  15  18
ATOM     18  O   UNL     1       3.281  12.038  22.484  1.00  0.00    -0.385 OA
ATOM     19  H   UNL     1       3.836  11.264  22.246  1.00  0.00    +0.211 HD
ENDBRANCH  15  18
ENDBRANCH   7   8
ENDBRANCH   1   7
BRANCH   2  20
ATOM     20  O   UNL     1       0.142   9.612  26.734  1.00  0.00    -0.385 OA
ATOM     21  H   UNL     1      -0.003  10.135  27.547  1.00  0.00    +0.211 HD
ENDBRANCH   2  20
BRANCH   3  22
ATOM     22  O   UNL     1      -2.112   8.439  27.857  1.00  0.00    -0.387 OA
ATOM     23  H   UNL     1      -3.028   8.125  28.010  1.00  0.00    +0.211 HD
ENDBRANCH   3  22
BRANCH   5  24
ATOM     24  C   UNL     1      -3.534   9.478  23.620  1.00  0.00    +0.220 C 
BRANCH  24  25
ATOM     25  O   UNL     1      -2.832   8.264  23.877  1.00  0.00    -0.245 OA
BRANCH  25  26
ATOM     26  S   UNL     1      -2.059   7.558  22.637  1.00  0.00    +0.397 S 
ATOM     27  O   UNL     1      -2.710   7.899  21.392  1.00  0.00    -0.169 OA
ATOM     28  O   UNL     1      -1.765   6.192  23.003  1.00  0.00    -0.169 OA
BRANCH  26  29
ATOM     29  O   UNL     1      -0.634   8.306  22.663  1.00  0.00    -0.264 OA
ATOM     30  H   UNL     1      -0.697   9.016  23.333  1.00  0.00    +0.236 HD
ENDBRANCH  26  29
ENDBRANCH  25  26
ENDBRANCH  24  25
ENDBRANCH   5  24
BRANCH   4  31
ATOM     31  O   UNL     1      -3.849   8.089  25.966  1.00  0.00    -0.387 OA
ATOM     32  H   UNL     1      -4.496   7.829  26.660  1.00  0.00    +0.211 HD
ENDBRANCH   4  31
TORSDOF 11
ENDMDL
