MODEL 1
REMARK VINA RESULT:    -8.314      0.000      0.000
REMARK INTER + INTRA:         -18.088
REMARK INTER:                 -15.848
REMARK INTRA:                  -2.240
REMARK UNBOUND:                -2.240
REMARK SMILES C[C@H](NC(=O)CCC(=O)O)C(=O)N[C@@H](C)C(=O)N1CCC[C@@H]1C(=O)N[C@H](Cc1ccccc1)C(=O)Nc1ccc([N+](=O)[O-])cc1
REMARK SMILES IDX 14 1 15 2 13 3 11 4 12 5 2 7 1 8 3 9 4 10 5 11 6 13 7 14
REMARK SMILES IDX 8 15 9 16 10 17 16 19 17 20 18 21 19 22 22 23 20 24 21 25
REMARK SMILES IDX 23 26 24 27 25 28 26 30 27 31 28 32 29 33 33 34 30 35 32 36
REMARK SMILES IDX 31 37 34 38 35 39 36 40 37 42 38 43 45 44 39 45 44 46 40 47
REMARK SMILES IDX 41 48 42 49 43 50
REMARK H PARENT 13 6 3 12 10 18 25 29 36 41
ROOT
ATOM      1  C   UNL     1       5.613 -14.402  -1.639  1.00  0.00    +0.168 C 
ATOM      2  C   UNL     1       6.931 -13.757  -1.224  1.00  0.00    +0.041 C 
ENDROOT
BRANCH   1   3
ATOM      3  N   UNL     1       4.884 -13.534  -2.558  1.00  0.00    -0.343 N 
ATOM      4  C   UNL     1       4.405 -13.958  -3.778  1.00  0.00    +0.242 C 
ATOM      5  O   UNL     1       4.574 -15.102  -4.189  1.00  0.00    -0.273 OA
ATOM      6  H   UNL     1       4.574 -12.633  -2.199  1.00  0.00    +0.164 HD
BRANCH   4   7
ATOM      7  C   UNL     1       3.534 -12.908  -4.498  1.00  0.00    +0.168 C 
ATOM      8  C   UNL     1       2.068 -13.047  -4.112  1.00  0.00    +0.041 C 
BRANCH   7   9
ATOM      9  N   UNL     1       3.710 -13.019  -5.948  1.00  0.00    -0.345 N 
ATOM     10  C   UNL     1       4.630 -12.249  -6.622  1.00  0.00    +0.221 C 
ATOM     11  O   UNL     1       5.433 -11.513  -6.062  1.00  0.00    -0.275 OA
ATOM     12  H   UNL     1       2.962 -13.457  -6.473  1.00  0.00    +0.164 HD
BRANCH  10  13
ATOM     13  C   UNL     1       4.585 -12.446  -8.124  1.00  0.00    +0.111 C 
BRANCH  13  14
ATOM     14  C   UNL     1       4.781 -11.134  -8.872  1.00  0.00    +0.132 C 
BRANCH  14  15
ATOM     15  C   UNL     1       4.678 -11.342 -10.357  1.00  0.00    +0.303 C 
ATOM     16  O   UNL     1       5.279 -10.737 -11.227  1.00  0.00    -0.252 OA
BRANCH  15  17
ATOM     17  O   UNL     1       3.767 -12.281 -10.676  1.00  0.00    -0.481 OA
ATOM     18  H   UNL     1       2.906 -11.855 -10.481  1.00  0.00    +0.296 HD
ENDBRANCH  15  17
ENDBRANCH  14  15
ENDBRANCH  13  14
ENDBRANCH  10  13
ENDBRANCH   7   9
ENDBRANCH   4   7
ENDBRANCH   1   3
BRANCH   1  19
ATOM     19  C   UNL     1       4.712 -14.620  -0.407  1.00  0.00    +0.245 C 
ATOM     20  O   UNL     1       5.189 -14.578   0.733  1.00  0.00    -0.272 OA
BRANCH  19  21
ATOM     21  N   UNL     1       3.381 -14.897  -0.615  1.00  0.00    -0.329 N 
ATOM     22  C   UNL     1       2.232 -14.060  -0.303  1.00  0.00    +0.120 C 
ATOM     23  C   UNL     1       2.968 -16.200  -1.124  1.00  0.00    +0.174 C 
ATOM     24  C   UNL     1       1.019 -14.951  -0.540  1.00  0.00    +0.024 C 
ATOM     25  C   UNL     1       1.519 -15.975  -1.555  1.00  0.00    +0.037 C 
BRANCH  23  26
ATOM     26  C   UNL     1       3.040 -17.288  -0.028  1.00  0.00    +0.243 C 
ATOM     27  O   UNL     1       2.267 -17.343   0.927  1.00  0.00    -0.273 OA
ATOM     28  N   UNL     1       4.023 -18.238  -0.244  1.00  0.00    -0.342 N 
ATOM     29  H   UNL     1       4.348 -18.339  -1.199  1.00  0.00    +0.164 HD
BRANCH  28  30
ATOM     30  C   UNL     1       4.033 -19.472   0.546  1.00  0.00    +0.176 C 
BRANCH  30  31
ATOM     31  C   UNL     1       5.261 -19.510   1.467  1.00  0.00    +0.070 C 
BRANCH  31  32
ATOM     32  C   UNL     1       5.171 -18.539   2.622  1.00  0.00    -0.045 A 
ATOM     33  C   UNL     1       5.956 -17.379   2.641  1.00  0.00    +0.004 A 
ATOM     34  C   UNL     1       4.326 -18.808   3.708  1.00  0.00    +0.004 A 
ATOM     35  C   UNL     1       5.906 -16.509   3.731  1.00  0.00    +0.000 A 
ATOM     36  C   UNL     1       4.277 -17.936   4.796  1.00  0.00    +0.000 A 
ATOM     37  C   UNL     1       5.068 -16.790   4.809  1.00  0.00    +0.000 A 
ENDBRANCH  31  32
ENDBRANCH  30  31
BRANCH  30  38
ATOM     38  C   UNL     1       4.066 -20.648  -0.460  1.00  0.00    +0.247 C 
ATOM     39  O   UNL     1       3.110 -20.857  -1.208  1.00  0.00    -0.272 OA
ATOM     40  N   UNL     1       5.259 -21.350  -0.445  1.00  0.00    -0.324 N 
ATOM     41  H   UNL     1       5.972 -21.016   0.195  1.00  0.00    +0.170 HD
BRANCH  40  42
ATOM     42  C   UNL     1       5.629 -22.443  -1.254  1.00  0.00    +0.041 A 
ATOM     43  C   UNL     1       5.874 -22.353  -2.627  1.00  0.00    +0.033 A 
ATOM     44  C   UNL     1       5.753 -23.687  -0.619  1.00  0.00    +0.033 A 
ATOM     45  C   UNL     1       6.240 -23.488  -3.362  1.00  0.00    +0.088 A 
ATOM     46  C   UNL     1       6.119 -24.828  -1.342  1.00  0.00    +0.088 A 
ATOM     47  C   UNL     1       6.361 -24.722  -2.715  1.00  0.00    +0.269 A 
BRANCH  47  48
ATOM     48  N   UNL     1       6.747 -25.914  -3.482  1.00  0.00    +0.062 N 
ATOM     49  O   UNL     1       7.931 -26.013  -3.833  1.00  0.00    -0.258 OA
ATOM     50  O   UNL     1       5.865 -26.747  -3.736  1.00  0.00    -0.258 OA
ENDBRANCH  47  48
ENDBRANCH  40  42
ENDBRANCH  30  38
ENDBRANCH  28  30
ENDBRANCH  23  26
ENDBRANCH  19  21
ENDBRANCH   1  19
TORSDOF 16
ENDMDL
MODEL 2
REMARK VINA RESULT:    -8.102      2.088      3.181
REMARK INTER + INTRA:         -17.683
REMARK INTER:                 -14.733
REMARK INTRA:                  -2.950
REMARK UNBOUND:                -2.240
REMARK SMILES C[C@H](NC(=O)CCC(=O)O)C(=O)N[C@@H](C)C(=O)N1CCC[C@@H]1C(=O)N[C@H](Cc1ccccc1)C(=O)Nc1ccc([N+](=O)[O-])cc1
REMARK SMILES IDX 14 1 15 2 13 3 11 4 12 5 2 7 1 8 3 9 4 10 5 11 6 13 7 14
REMARK SMILES IDX 8 15 9 16 10 17 16 19 17 20 18 21 19 22 22 23 20 24 21 25
REMARK SMILES IDX 23 26 24 27 25 28 26 30 27 31 28 32 29 33 33 34 30 35 32 36
REMARK SMILES IDX 31 37 34 38 35 39 36 40 37 42 38 43 45 44 39 45 44 46 40 47
REMARK SMILES IDX 41 48 42 49 43 50
REMARK H PARENT 13 6 3 12 10 18 25 29 36 41
ROOT
ATOM      1  C   UNL     1       4.563 -15.634   1.420  1.00  0.00    +0.168 C 
ATOM      2  C   UNL     1       5.347 -15.358   2.698  1.00  0.00    +0.041 C 
ENDROOT
BRANCH   1   3
ATOM      3  N   UNL     1       5.175 -14.951   0.285  1.00  0.00    -0.343 N 
ATOM      4  C   UNL     1       5.792 -15.614  -0.752  1.00  0.00    +0.242 C 
ATOM      5  O   UNL     1       5.887 -16.838  -0.787  1.00  0.00    -0.273 OA
ATOM      6  H   UNL     1       4.980 -13.957   0.181  1.00  0.00    +0.164 HD
BRANCH   4   7
ATOM      7  C   UNL     1       6.221 -14.688  -1.909  1.00  0.00    +0.168 C 
ATOM      8  C   UNL     1       7.243 -13.660  -1.445  1.00  0.00    +0.041 C 
BRANCH   7   9
ATOM      9  N   UNL     1       5.046 -14.037  -2.494  1.00  0.00    -0.345 N 
ATOM     10  C   UNL     1       4.436 -14.533  -3.623  1.00  0.00    +0.221 C 
ATOM     11  O   UNL     1       4.749 -15.595  -4.147  1.00  0.00    -0.275 OA
ATOM     12  H   UNL     1       4.867 -13.077  -2.224  1.00  0.00    +0.164 HD
BRANCH  10  13
ATOM     13  C   UNL     1       3.301 -13.660  -4.119  1.00  0.00    +0.111 C 
BRANCH  13  14
ATOM     14  C   UNL     1       3.781 -12.257  -4.468  1.00  0.00    +0.132 C 
BRANCH  14  15
ATOM     15  C   UNL     1       4.360 -12.219  -5.856  1.00  0.00    +0.303 C 
ATOM     16  O   UNL     1       4.199 -13.041  -6.741  1.00  0.00    -0.252 OA
BRANCH  15  17
ATOM     17  O   UNL     1       5.167 -11.157  -6.040  1.00  0.00    -0.481 OA
ATOM     18  H   UNL     1       6.070 -11.537  -6.024  1.00  0.00    +0.296 HD
ENDBRANCH  15  17
ENDBRANCH  14  15
ENDBRANCH  13  14
ENDBRANCH  10  13
ENDBRANCH   7   9
ENDBRANCH   4   7
ENDBRANCH   1   3
BRANCH   1  19
ATOM     19  C   UNL     1       3.122 -15.101   1.549  1.00  0.00    +0.245 C 
ATOM     20  O   UNL     1       2.716 -14.648   2.627  1.00  0.00    -0.272 OA
BRANCH  19  21
ATOM     21  N   UNL     1       2.298 -15.178   0.451  1.00  0.00    -0.329 N 
ATOM     22  C   UNL     1       1.275 -14.232   0.031  1.00  0.00    +0.120 C 
ATOM     23  C   UNL     1       2.318 -16.358  -0.407  1.00  0.00    +0.174 C 
ATOM     24  C   UNL     1       0.539 -14.926  -1.108  1.00  0.00    +0.024 C 
ATOM     25  C   UNL     1       1.575 -15.900  -1.662  1.00  0.00    +0.037 C 
BRANCH  23  26
ATOM     26  C   UNL     1       1.583 -17.549   0.248  1.00  0.00    +0.243 C 
ATOM     27  O   UNL     1       0.377 -17.755   0.126  1.00  0.00    -0.273 OA
ATOM     28  N   UNL     1       2.416 -18.407   0.946  1.00  0.00    -0.342 N 
ATOM     29  H   UNL     1       3.398 -18.384   0.694  1.00  0.00    +0.164 HD
BRANCH  28  30
ATOM     30  C   UNL     1       1.919 -19.714   1.381  1.00  0.00    +0.176 C 
BRANCH  30  31
ATOM     31  C   UNL     1       2.321 -19.985   2.839  1.00  0.00    +0.070 C 
BRANCH  31  32
ATOM     32  C   UNL     1       2.196 -18.769   3.727  1.00  0.00    -0.045 A 
ATOM     33  C   UNL     1       3.331 -18.203   4.323  1.00  0.00    +0.004 A 
ATOM     34  C   UNL     1       0.937 -18.215   3.995  1.00  0.00    +0.004 A 
ATOM     35  C   UNL     1       3.206 -17.109   5.181  1.00  0.00    +0.000 A 
ATOM     36  C   UNL     1       0.815 -17.121   4.853  1.00  0.00    +0.000 A 
ATOM     37  C   UNL     1       1.948 -16.571   5.447  1.00  0.00    +0.000 A 
ENDBRANCH  31  32
ENDBRANCH  30  31
BRANCH  30  38
ATOM     38  C   UNL     1       2.545 -20.769   0.436  1.00  0.00    +0.247 C 
ATOM     39  O   UNL     1       1.893 -21.749   0.074  1.00  0.00    -0.272 OA
ATOM     40  N   UNL     1       3.831 -20.451   0.033  1.00  0.00    -0.324 N 
ATOM     41  H   UNL     1       4.209 -19.574   0.379  1.00  0.00    +0.170 HD
BRANCH  40  42
ATOM     42  C   UNL     1       4.664 -21.169  -0.847  1.00  0.00    +0.041 A 
ATOM     43  C   UNL     1       4.474 -21.230  -2.230  1.00  0.00    +0.033 A 
ATOM     44  C   UNL     1       5.744 -21.859  -0.275  1.00  0.00    +0.033 A 
ATOM     45  C   UNL     1       5.349 -21.966  -3.039  1.00  0.00    +0.088 A 
ATOM     46  C   UNL     1       6.625 -22.597  -1.073  1.00  0.00    +0.088 A 
ATOM     47  C   UNL     1       6.423 -22.648  -2.456  1.00  0.00    +0.269 A 
BRANCH  47  48
ATOM     48  N   UNL     1       7.344 -23.419  -3.301  1.00  0.00    +0.062 N 
ATOM     49  O   UNL     1       8.502 -22.996  -3.423  1.00  0.00    -0.258 OA
ATOM     50  O   UNL     1       6.907 -24.444  -3.843  1.00  0.00    -0.258 OA
ENDBRANCH  47  48
ENDBRANCH  40  42
ENDBRANCH  30  38
ENDBRANCH  28  30
ENDBRANCH  23  26
ENDBRANCH  19  21
ENDBRANCH   1  19
TORSDOF 16
ENDMDL
MODEL 3
REMARK VINA RESULT:    -8.090      1.567      2.026
REMARK INTER + INTRA:         -17.661
REMARK INTER:                 -16.232
REMARK INTRA:                  -1.429
REMARK UNBOUND:                -2.240
REMARK SMILES C[C@H](NC(=O)CCC(=O)O)C(=O)N[C@@H](C)C(=O)N1CCC[C@@H]1C(=O)N[C@H](Cc1ccccc1)C(=O)Nc1ccc([N+](=O)[O-])cc1
REMARK SMILES IDX 14 1 15 2 13 3 11 4 12 5 2 7 1 8 3 9 4 10 5 11 6 13 7 14
REMARK SMILES IDX 8 15 9 16 10 17 16 19 17 20 18 21 19 22 22 23 20 24 21 25
REMARK SMILES IDX 23 26 24 27 25 28 26 30 27 31 28 32 29 33 33 34 30 35 32 36
REMARK SMILES IDX 31 37 34 38 35 39 36 40 37 42 38 43 45 44 39 45 44 46 40 47
REMARK SMILES IDX 41 48 42 49 43 50
REMARK H PARENT 13 6 3 12 10 18 25 29 36 41
ROOT
ATOM      1  C   UNL     1       5.584 -15.318  -1.857  1.00  0.00    +0.168 C 
ATOM      2  C   UNL     1       6.632 -14.818  -0.869  1.00  0.00    +0.041 C 
ENDROOT
BRANCH   1   3
ATOM      3  N   UNL     1       4.945 -14.198  -2.539  1.00  0.00    -0.343 N 
ATOM      4  C   UNL     1       4.514 -14.255  -3.845  1.00  0.00    +0.242 C 
ATOM      5  O   UNL     1       4.654 -15.257  -4.541  1.00  0.00    -0.273 OA
ATOM      6  H   UNL     1       4.656 -13.408  -1.964  1.00  0.00    +0.164 HD
BRANCH   4   7
ATOM      7  C   UNL     1       3.730 -13.004  -4.292  1.00  0.00    +0.168 C 
ATOM      8  C   UNL     1       2.343 -12.967  -3.666  1.00  0.00    +0.041 C 
BRANCH   7   9
ATOM      9  N   UNL     1       3.650 -12.957  -5.755  1.00  0.00    -0.345 N 
ATOM     10  C   UNL     1       4.655 -12.404  -6.513  1.00  0.00    +0.221 C 
ATOM     11  O   UNL     1       5.721 -12.020  -6.045  1.00  0.00    -0.275 OA
ATOM     12  H   UNL     1       2.734 -13.080  -6.172  1.00  0.00    +0.164 HD
BRANCH  10  13
ATOM     13  C   UNL     1       4.333 -12.368  -7.994  1.00  0.00    +0.111 C 
BRANCH  13  14
ATOM     14  C   UNL     1       5.462 -11.739  -8.801  1.00  0.00    +0.132 C 
BRANCH  14  15
ATOM     15  C   UNL     1       6.187 -12.779  -9.609  1.00  0.00    +0.303 C 
ATOM     16  O   UNL     1       7.275 -12.664 -10.145  1.00  0.00    -0.252 OA
BRANCH  15  17
ATOM     17  O   UNL     1       5.466 -13.908  -9.747  1.00  0.00    -0.481 OA
ATOM     18  H   UNL     1       6.031 -14.602  -9.346  1.00  0.00    +0.296 HD
ENDBRANCH  15  17
ENDBRANCH  14  15
ENDBRANCH  13  14
ENDBRANCH  10  13
ENDBRANCH   7   9
ENDBRANCH   4   7
ENDBRANCH   1   3
BRANCH   1  19
ATOM     19  C   UNL     1       4.475 -16.092  -1.116  1.00  0.00    +0.245 C 
ATOM     20  O   UNL     1       4.662 -17.260  -0.753  1.00  0.00    -0.272 OA
BRANCH  19  21
ATOM     21  N   UNL     1       3.270 -15.463  -0.906  1.00  0.00    -0.329 N 
ATOM     22  C   UNL     1       3.032 -14.172  -0.279  1.00  0.00    +0.120 C 
ATOM     23  C   UNL     1       2.018 -16.133  -1.241  1.00  0.00    +0.174 C 
ATOM     24  C   UNL     1       1.519 -14.084  -0.120  1.00  0.00    +0.024 C 
ATOM     25  C   UNL     1       0.990 -15.002  -1.218  1.00  0.00    +0.037 C 
BRANCH  23  26
ATOM     26  C   UNL     1       1.654 -17.212  -0.196  1.00  0.00    +0.243 C 
ATOM     27  O   UNL     1       0.601 -17.847  -0.211  1.00  0.00    -0.273 OA
ATOM     28  N   UNL     1       2.649 -17.447   0.738  1.00  0.00    -0.342 N 
ATOM     29  H   UNL     1       3.589 -17.175   0.471  1.00  0.00    +0.164 HD
BRANCH  28  30
ATOM     30  C   UNL     1       2.569 -18.620   1.611  1.00  0.00    +0.176 C 
BRANCH  30  31
ATOM     31  C   UNL     1       3.532 -18.473   2.799  1.00  0.00    +0.070 C 
BRANCH  31  32
ATOM     32  C   UNL     1       4.189 -17.114   2.869  1.00  0.00    -0.045 A 
ATOM     33  C   UNL     1       3.429 -15.968   3.138  1.00  0.00    +0.004 A 
ATOM     34  C   UNL     1       5.563 -16.980   2.627  1.00  0.00    +0.004 A 
ATOM     35  C   UNL     1       4.032 -14.709   3.155  1.00  0.00    +0.000 A 
ATOM     36  C   UNL     1       6.163 -15.720   2.644  1.00  0.00    +0.000 A 
ATOM     37  C   UNL     1       5.397 -14.586   2.905  1.00  0.00    +0.000 A 
ENDBRANCH  31  32
ENDBRANCH  30  31
BRANCH  30  38
ATOM     38  C   UNL     1       2.949 -19.848   0.747  1.00  0.00    +0.247 C 
ATOM     39  O   UNL     1       2.103 -20.697   0.464  1.00  0.00    -0.272 OA
ATOM     40  N   UNL     1       4.265 -19.833   0.319  1.00  0.00    -0.324 N 
ATOM     41  H   UNL     1       4.821 -19.030   0.596  1.00  0.00    +0.170 HD
BRANCH  40  42
ATOM     42  C   UNL     1       4.916 -20.771  -0.505  1.00  0.00    +0.041 A 
ATOM     43  C   UNL     1       5.834 -21.718  -0.041  1.00  0.00    +0.033 A 
ATOM     44  C   UNL     1       4.610 -20.733  -1.873  1.00  0.00    +0.033 A 
ATOM     45  C   UNL     1       6.439 -22.619  -0.926  1.00  0.00    +0.088 A 
ATOM     46  C   UNL     1       5.207 -21.628  -2.768  1.00  0.00    +0.088 A 
ATOM     47  C   UNL     1       6.122 -22.570  -2.288  1.00  0.00    +0.269 A 
BRANCH  47  48
ATOM     48  N   UNL     1       6.753 -23.515  -3.218  1.00  0.00    +0.062 N 
ATOM     49  O   UNL     1       7.973 -23.407  -3.408  1.00  0.00    -0.258 OA
ATOM     50  O   UNL     1       6.028 -24.361  -3.761  1.00  0.00    -0.258 OA
ENDBRANCH  47  48
ENDBRANCH  40  42
ENDBRANCH  30  38
ENDBRANCH  28  30
ENDBRANCH  23  26
ENDBRANCH  19  21
ENDBRANCH   1  19
TORSDOF 16
ENDMDL
MODEL 4
REMARK VINA RESULT:    -8.021      3.982      8.910
REMARK INTER + INTRA:         -17.528
REMARK INTER:                 -14.583
REMARK INTRA:                  -2.945
REMARK UNBOUND:                -2.240
REMARK SMILES C[C@H](NC(=O)CCC(=O)O)C(=O)N[C@@H](C)C(=O)N1CCC[C@@H]1C(=O)N[C@H](Cc1ccccc1)C(=O)Nc1ccc([N+](=O)[O-])cc1
REMARK SMILES IDX 14 1 15 2 13 3 11 4 12 5 2 7 1 8 3 9 4 10 5 11 6 13 7 14
REMARK SMILES IDX 8 15 9 16 10 17 16 19 17 20 18 21 19 22 22 23 20 24 21 25
REMARK SMILES IDX 23 26 24 27 25 28 26 30 27 31 28 32 29 33 33 34 30 35 32 36
REMARK SMILES IDX 31 37 34 38 35 39 36 40 37 42 38 43 45 44 39 45 44 46 40 47
REMARK SMILES IDX 41 48 42 49 43 50
REMARK H PARENT 13 6 3 12 10 18 25 29 36 41
ROOT
ATOM      1  C   UNL     1       3.861 -19.540  -1.619  1.00  0.00    +0.168 C 
ATOM      2  C   UNL     1       4.181 -20.593  -2.675  1.00  0.00    +0.041 C 
ENDROOT
BRANCH   1   3
ATOM      3  N   UNL     1       4.716 -18.370  -1.786  1.00  0.00    -0.343 N 
ATOM      4  C   UNL     1       4.235 -17.080  -1.815  1.00  0.00    +0.242 C 
ATOM      5  O   UNL     1       3.038 -16.823  -1.718  1.00  0.00    -0.273 OA
ATOM      6  H   UNL     1       5.721 -18.513  -1.703  1.00  0.00    +0.164 HD
BRANCH   4   7
ATOM      7  C   UNL     1       5.342 -16.007  -1.842  1.00  0.00    +0.168 C 
ATOM      8  C   UNL     1       5.977 -15.833  -0.469  1.00  0.00    +0.041 C 
BRANCH   7   9
ATOM      9  N   UNL     1       4.801 -14.739  -2.338  1.00  0.00    -0.345 N 
ATOM     10  C   UNL     1       4.651 -14.498  -3.684  1.00  0.00    +0.221 C 
ATOM     11  O   UNL     1       4.844 -15.347  -4.547  1.00  0.00    -0.275 OA
ATOM     12  H   UNL     1       4.806 -13.952  -1.699  1.00  0.00    +0.164 HD
BRANCH  10  13
ATOM     13  C   UNL     1       4.168 -13.094  -3.987  1.00  0.00    +0.111 C 
BRANCH  13  14
ATOM     14  C   UNL     1       3.440 -13.025  -5.323  1.00  0.00    +0.132 C 
BRANCH  14  15
ATOM     15  C   UNL     1       4.354 -12.523  -6.407  1.00  0.00    +0.303 C 
ATOM     16  O   UNL     1       5.457 -12.026  -6.264  1.00  0.00    -0.252 OA
BRANCH  15  17
ATOM     17  O   UNL     1       3.797 -12.626  -7.629  1.00  0.00    -0.481 OA
ATOM     18  H   UNL     1       4.550 -12.504  -8.245  1.00  0.00    +0.296 HD
ENDBRANCH  15  17
ENDBRANCH  14  15
ENDBRANCH  13  14
ENDBRANCH  10  13
ENDBRANCH   7   9
ENDBRANCH   4   7
ENDBRANCH   1   3
BRANCH   1  19
ATOM     19  C   UNL     1       4.126 -20.100  -0.207  1.00  0.00    +0.245 C 
ATOM     20  O   UNL     1       5.283 -20.302   0.180  1.00  0.00    -0.272 OA
BRANCH  19  21
ATOM     21  N   UNL     1       3.044 -20.401   0.587  1.00  0.00    -0.329 N 
ATOM     22  C   UNL     1       2.024 -21.414   0.363  1.00  0.00    +0.120 C 
ATOM     23  C   UNL     1       2.754 -19.605   1.774  1.00  0.00    +0.174 C 
ATOM     24  C   UNL     1       0.970 -21.155   1.432  1.00  0.00    +0.024 C 
ATOM     25  C   UNL     1       1.752 -20.463   2.546  1.00  0.00    +0.037 C 
BRANCH  23  26
ATOM     26  C   UNL     1       2.122 -18.243   1.404  1.00  0.00    +0.243 C 
ATOM     27  O   UNL     1       1.219 -18.114   0.580  1.00  0.00    -0.273 OA
ATOM     28  N   UNL     1       2.626 -17.176   2.128  1.00  0.00    -0.342 N 
ATOM     29  H   UNL     1       3.069 -17.402   3.011  1.00  0.00    +0.164 HD
BRANCH  28  30
ATOM     30  C   UNL     1       1.941 -15.881   2.092  1.00  0.00    +0.176 C 
BRANCH  30  31
ATOM     31  C   UNL     1       2.620 -14.942   1.083  1.00  0.00    +0.070 C 
BRANCH  31  32
ATOM     32  C   UNL     1       1.646 -14.286   0.132  1.00  0.00    -0.045 A 
ATOM     33  C   UNL     1       0.292 -14.644   0.139  1.00  0.00    +0.004 A 
ATOM     34  C   UNL     1       2.096 -13.337  -0.797  1.00  0.00    +0.004 A 
ATOM     35  C   UNL     1      -0.595 -14.070  -0.774  1.00  0.00    +0.000 A 
ATOM     36  C   UNL     1       1.207 -12.765  -1.708  1.00  0.00    +0.000 A 
ATOM     37  C   UNL     1      -0.136 -13.133  -1.697  1.00  0.00    +0.000 A 
ENDBRANCH  31  32
ENDBRANCH  30  31
BRANCH  30  38
ATOM     38  C   UNL     1       2.017 -15.294   3.523  1.00  0.00    +0.247 C 
ATOM     39  O   UNL     1       3.065 -14.800   3.940  1.00  0.00    -0.272 OA
ATOM     40  N   UNL     1       0.812 -15.347   4.202  1.00  0.00    -0.324 N 
ATOM     41  H   UNL     1       0.024 -15.738   3.696  1.00  0.00    +0.170 HD
BRANCH  40  42
ATOM     42  C   UNL     1       0.529 -14.869   5.497  1.00  0.00    +0.041 A 
ATOM     43  C   UNL     1      -0.026 -13.614   5.764  1.00  0.00    +0.033 A 
ATOM     44  C   UNL     1       0.830 -15.724   6.567  1.00  0.00    +0.033 A 
ATOM     45  C   UNL     1      -0.280 -13.213   7.081  1.00  0.00    +0.088 A 
ATOM     46  C   UNL     1       0.580 -15.334   7.888  1.00  0.00    +0.088 A 
ATOM     47  C   UNL     1       0.024 -14.076   8.140  1.00  0.00    +0.269 A 
BRANCH  47  48
ATOM     48  N   UNL     1      -0.243 -13.659   9.522  1.00  0.00    +0.062 N 
ATOM     49  O   UNL     1      -0.357 -12.446   9.745  1.00  0.00    -0.258 OA
ATOM     50  O   UNL     1      -0.335 -14.545  10.384  1.00  0.00    -0.258 OA
ENDBRANCH  47  48
ENDBRANCH  40  42
ENDBRANCH  30  38
ENDBRANCH  28  30
ENDBRANCH  23  26
ENDBRANCH  19  21
ENDBRANCH   1  19
TORSDOF 16
ENDMDL
MODEL 5
REMARK VINA RESULT:    -7.620      3.855      6.751
REMARK INTER + INTRA:         -16.765
REMARK INTER:                 -14.240
REMARK INTRA:                  -2.525
REMARK UNBOUND:                -2.240
REMARK SMILES C[C@H](NC(=O)CCC(=O)O)C(=O)N[C@@H](C)C(=O)N1CCC[C@@H]1C(=O)N[C@H](Cc1ccccc1)C(=O)Nc1ccc([N+](=O)[O-])cc1
REMARK SMILES IDX 14 1 15 2 13 3 11 4 12 5 2 7 1 8 3 9 4 10 5 11 6 13 7 14
REMARK SMILES IDX 8 15 9 16 10 17 16 19 17 20 18 21 19 22 22 23 20 24 21 25
REMARK SMILES IDX 23 26 24 27 25 28 26 30 27 31 28 32 29 33 33 34 30 35 32 36
REMARK SMILES IDX 31 37 34 38 35 39 36 40 37 42 38 43 45 44 39 45 44 46 40 47
REMARK SMILES IDX 41 48 42 49 43 50
REMARK H PARENT 13 6 3 12 10 18 25 29 36 41
ROOT
ATOM      1  C   UNL     1       6.942 -14.742  -0.691  1.00  0.00    +0.168 C 
ATOM      2  C   UNL     1       8.280 -14.064  -0.416  1.00  0.00    +0.041 C 
ENDROOT
BRANCH   1   3
ATOM      3  N   UNL     1       6.530 -14.523  -2.073  1.00  0.00    -0.343 N 
ATOM      4  C   UNL     1       5.763 -15.419  -2.784  1.00  0.00    +0.242 C 
ATOM      5  O   UNL     1       5.383 -16.484  -2.305  1.00  0.00    -0.273 OA
ATOM      6  H   UNL     1       6.674 -13.591  -2.459  1.00  0.00    +0.164 HD
BRANCH   4   7
ATOM      7  C   UNL     1       5.324 -14.896  -4.167  1.00  0.00    +0.168 C 
ATOM      8  C   UNL     1       6.161 -13.699  -4.597  1.00  0.00    +0.041 C 
BRANCH   7   9
ATOM      9  N   UNL     1       3.898 -14.563  -4.148  1.00  0.00    -0.345 N 
ATOM     10  C   UNL     1       3.425 -13.459  -3.477  1.00  0.00    +0.221 C 
ATOM     11  O   UNL     1       4.154 -12.625  -2.953  1.00  0.00    -0.275 OA
ATOM     12  H   UNL     1       3.247 -15.300  -4.394  1.00  0.00    +0.164 HD
BRANCH  10  13
ATOM     13  C   UNL     1       1.914 -13.349  -3.502  1.00  0.00    +0.111 C 
BRANCH  13  14
ATOM     14  C   UNL     1       1.351 -13.014  -2.126  1.00  0.00    +0.132 C 
BRANCH  14  15
ATOM     15  C   UNL     1       1.164 -14.260  -1.306  1.00  0.00    +0.303 C 
ATOM     16  O   UNL     1       1.972 -14.768  -0.548  1.00  0.00    -0.252 OA
BRANCH  15  17
ATOM     17  O   UNL     1      -0.032 -14.839  -1.528  1.00  0.00    -0.481 OA
ATOM     18  H   UNL     1      -0.664 -14.090  -1.529  1.00  0.00    +0.296 HD
ENDBRANCH  15  17
ENDBRANCH  14  15
ENDBRANCH  13  14
ENDBRANCH  10  13
ENDBRANCH   7   9
ENDBRANCH   4   7
ENDBRANCH   1   3
BRANCH   1  19
ATOM     19  C   UNL     1       5.844 -14.146   0.212  1.00  0.00    +0.245 C 
ATOM     20  O   UNL     1       5.224 -13.135  -0.140  1.00  0.00    -0.272 OA
BRANCH  19  21
ATOM     21  N   UNL     1       5.604 -14.744   1.427  1.00  0.00    -0.329 N 
ATOM     22  C   UNL     1       6.474 -14.782   2.593  1.00  0.00    +0.120 C 
ATOM     23  C   UNL     1       4.396 -15.534   1.637  1.00  0.00    +0.174 C 
ATOM     24  C   UNL     1       5.800 -15.752   3.556  1.00  0.00    +0.024 C 
ATOM     25  C   UNL     1       4.329 -15.691   3.156  1.00  0.00    +0.037 C 
BRANCH  23  26
ATOM     26  C   UNL     1       4.498 -16.919   0.958  1.00  0.00    +0.243 C 
ATOM     27  O   UNL     1       5.553 -17.537   0.828  1.00  0.00    -0.273 OA
ATOM     28  N   UNL     1       3.279 -17.436   0.553  1.00  0.00    -0.342 N 
ATOM     29  H   UNL     1       2.457 -17.063   1.014  1.00  0.00    +0.164 HD
BRANCH  28  30
ATOM     30  C   UNL     1       3.179 -18.842   0.152  1.00  0.00    +0.176 C 
BRANCH  30  31
ATOM     31  C   UNL     1       3.428 -18.990  -1.356  1.00  0.00    +0.070 C 
BRANCH  31  32
ATOM     32  C   UNL     1       4.252 -20.207  -1.708  1.00  0.00    -0.045 A 
ATOM     33  C   UNL     1       5.003 -20.867  -0.726  1.00  0.00    +0.004 A 
ATOM     34  C   UNL     1       4.304 -20.668  -3.031  1.00  0.00    +0.004 A 
ATOM     35  C   UNL     1       5.801 -21.961  -1.064  1.00  0.00    +0.000 A 
ATOM     36  C   UNL     1       5.102 -21.762  -3.366  1.00  0.00    +0.000 A 
ATOM     37  C   UNL     1       5.851 -22.406  -2.384  1.00  0.00    +0.000 A 
ENDBRANCH  31  32
ENDBRANCH  30  31
BRANCH  30  38
ATOM     38  C   UNL     1       1.751 -19.312   0.521  1.00  0.00    +0.247 C 
ATOM     39  O   UNL     1       0.856 -19.314  -0.326  1.00  0.00    -0.272 OA
ATOM     40  N   UNL     1       1.638 -19.754   1.828  1.00  0.00    -0.324 N 
ATOM     41  H   UNL     1       2.487 -19.739   2.385  1.00  0.00    +0.170 HD
BRANCH  40  42
ATOM     42  C   UNL     1       0.498 -20.278   2.467  1.00  0.00    +0.041 A 
ATOM     43  C   UNL     1      -0.537 -19.497   2.989  1.00  0.00    +0.033 A 
ATOM     44  C   UNL     1       0.419 -21.675   2.576  1.00  0.00    +0.033 A 
ATOM     45  C   UNL     1      -1.640 -20.095   3.610  1.00  0.00    +0.088 A 
ATOM     46  C   UNL     1      -0.678 -22.285   3.194  1.00  0.00    +0.088 A 
ATOM     47  C   UNL     1      -1.706 -21.489   3.710  1.00  0.00    +0.269 A 
BRANCH  47  48
ATOM     48  N   UNL     1      -2.862 -22.120   4.359  1.00  0.00    +0.062 N 
ATOM     49  O   UNL     1      -3.246 -21.646   5.438  1.00  0.00    -0.258 OA
ATOM     50  O   UNL     1      -3.383 -23.091   3.792  1.00  0.00    -0.258 OA
ENDBRANCH  47  48
ENDBRANCH  40  42
ENDBRANCH  30  38
ENDBRANCH  28  30
ENDBRANCH  23  26
ENDBRANCH  19  21
ENDBRANCH   1  19
TORSDOF 16
ENDMDL
MODEL 6
REMARK VINA RESULT:    -7.615      3.023      4.290
REMARK INTER + INTRA:         -16.755
REMARK INTER:                 -14.538
REMARK INTRA:                  -2.217
REMARK UNBOUND:                -2.240
REMARK SMILES C[C@H](NC(=O)CCC(=O)O)C(=O)N[C@@H](C)C(=O)N1CCC[C@@H]1C(=O)N[C@H](Cc1ccccc1)C(=O)Nc1ccc([N+](=O)[O-])cc1
REMARK SMILES IDX 14 1 15 2 13 3 11 4 12 5 2 7 1 8 3 9 4 10 5 11 6 13 7 14
REMARK SMILES IDX 8 15 9 16 10 17 16 19 17 20 18 21 19 22 22 23 20 24 21 25
REMARK SMILES IDX 23 26 24 27 25 28 26 30 27 31 28 32 29 33 33 34 30 35 32 36
REMARK SMILES IDX 31 37 34 38 35 39 36 40 37 42 38 43 45 44 39 45 44 46 40 47
REMARK SMILES IDX 41 48 42 49 43 50
REMARK H PARENT 13 6 3 12 10 18 25 29 36 41
ROOT
ATOM      1  C   UNL     1       4.810 -17.419  -0.038  1.00  0.00    +0.168 C 
ATOM      2  C   UNL     1       5.919 -18.402   0.321  1.00  0.00    +0.041 C 
ENDROOT
BRANCH   1   3
ATOM      3  N   UNL     1       5.375 -16.165  -0.525  1.00  0.00    -0.343 N 
ATOM      4  C   UNL     1       5.628 -15.918  -1.856  1.00  0.00    +0.242 C 
ATOM      5  O   UNL     1       5.411 -16.750  -2.732  1.00  0.00    -0.273 OA
ATOM      6  H   UNL     1       5.417 -15.388   0.131  1.00  0.00    +0.164 HD
BRANCH   4   7
ATOM      7  C   UNL     1       6.075 -14.470  -2.142  1.00  0.00    +0.168 C 
ATOM      8  C   UNL     1       6.072 -13.629  -0.872  1.00  0.00    +0.041 C 
BRANCH   7   9
ATOM      9  N   UNL     1       5.218 -13.874  -3.171  1.00  0.00    -0.345 N 
ATOM     10  C   UNL     1       3.851 -13.820  -3.026  1.00  0.00    +0.221 C 
ATOM     11  O   UNL     1       3.267 -14.153  -2.002  1.00  0.00    -0.275 OA
ATOM     12  H   UNL     1       5.616 -13.761  -4.096  1.00  0.00    +0.164 HD
BRANCH  10  13
ATOM     13  C   UNL     1       3.146 -13.254  -4.243  1.00  0.00    +0.111 C 
BRANCH  13  14
ATOM     14  C   UNL     1       3.760 -11.933  -4.687  1.00  0.00    +0.132 C 
BRANCH  14  15
ATOM     15  C   UNL     1       4.579 -12.115  -5.934  1.00  0.00    +0.303 C 
ATOM     16  O   UNL     1       4.191 -12.527  -7.014  1.00  0.00    -0.252 OA
BRANCH  15  17
ATOM     17  O   UNL     1       5.878 -11.815  -5.738  1.00  0.00    -0.481 OA
ATOM     18  H   UNL     1       6.231 -12.590  -5.253  1.00  0.00    +0.296 HD
ENDBRANCH  15  17
ENDBRANCH  14  15
ENDBRANCH  13  14
ENDBRANCH  10  13
ENDBRANCH   7   9
ENDBRANCH   4   7
ENDBRANCH   1   3
BRANCH   1  19
ATOM     19  C   UNL     1       3.967 -17.084   1.209  1.00  0.00    +0.245 C 
ATOM     20  O   UNL     1       4.315 -17.485   2.327  1.00  0.00    -0.272 OA
BRANCH  19  21
ATOM     21  N   UNL     1       2.808 -16.365   1.038  1.00  0.00    -0.329 N 
ATOM     22  C   UNL     1       2.349 -15.211   1.798  1.00  0.00    +0.120 C 
ATOM     23  C   UNL     1       1.813 -16.787   0.058  1.00  0.00    +0.174 C 
ATOM     24  C   UNL     1       0.922 -14.968   1.322  1.00  0.00    +0.024 C 
ATOM     25  C   UNL     1       0.906 -15.565  -0.082  1.00  0.00    +0.037 C 
BRANCH  23  26
ATOM     26  C   UNL     1       1.003 -18.004   0.560  1.00  0.00    +0.243 C 
ATOM     27  O   UNL     1      -0.226 -18.037   0.591  1.00  0.00    -0.273 OA
ATOM     28  N   UNL     1       1.784 -19.088   0.922  1.00  0.00    -0.342 N 
ATOM     29  H   UNL     1       2.718 -19.121   0.527  1.00  0.00    +0.164 HD
BRANCH  28  30
ATOM     30  C   UNL     1       1.162 -20.394   1.148  1.00  0.00    +0.176 C 
BRANCH  30  31
ATOM     31  C   UNL     1       1.089 -20.702   2.651  1.00  0.00    +0.070 C 
BRANCH  31  32
ATOM     32  C   UNL     1      -0.301 -21.064   3.119  1.00  0.00    -0.045 A 
ATOM     33  C   UNL     1      -0.659 -22.403   3.324  1.00  0.00    +0.004 A 
ATOM     34  C   UNL     1      -1.263 -20.064   3.318  1.00  0.00    +0.004 A 
ATOM     35  C   UNL     1      -1.958 -22.737   3.710  1.00  0.00    +0.000 A 
ATOM     36  C   UNL     1      -2.561 -20.400   3.704  1.00  0.00    +0.000 A 
ATOM     37  C   UNL     1      -2.909 -21.735   3.897  1.00  0.00    +0.000 A 
ENDBRANCH  31  32
ENDBRANCH  30  31
BRANCH  30  38
ATOM     38  C   UNL     1       2.037 -21.441   0.416  1.00  0.00    +0.247 C 
ATOM     39  O   UNL     1       1.621 -22.586   0.234  1.00  0.00    -0.272 OA
ATOM     40  N   UNL     1       3.247 -20.933  -0.026  1.00  0.00    -0.324 N 
ATOM     41  H   UNL     1       3.418 -19.949   0.157  1.00  0.00    +0.170 HD
BRANCH  40  42
ATOM     42  C   UNL     1       4.251 -21.601  -0.752  1.00  0.00    +0.041 A 
ATOM     43  C   UNL     1       5.074 -22.597  -0.218  1.00  0.00    +0.033 A 
ATOM     44  C   UNL     1       4.418 -21.227  -2.094  1.00  0.00    +0.033 A 
ATOM     45  C   UNL     1       6.050 -23.216  -1.008  1.00  0.00    +0.088 A 
ATOM     46  C   UNL     1       5.390 -21.838  -2.894  1.00  0.00    +0.088 A 
ATOM     47  C   UNL     1       6.204 -22.834  -2.345  1.00  0.00    +0.269 A 
BRANCH  47  48
ATOM     48  N   UNL     1       7.226 -23.482  -3.177  1.00  0.00    +0.062 N 
ATOM     49  O   UNL     1       6.955 -24.590  -3.662  1.00  0.00    -0.258 OA
ATOM     50  O   UNL     1       8.299 -22.885  -3.343  1.00  0.00    -0.258 OA
ENDBRANCH  47  48
ENDBRANCH  40  42
ENDBRANCH  30  38
ENDBRANCH  28  30
ENDBRANCH  23  26
ENDBRANCH  19  21
ENDBRANCH   1  19
TORSDOF 16
ENDMDL
MODEL 7
REMARK VINA RESULT:    -7.602      3.393      8.819
REMARK INTER + INTRA:         -16.731
REMARK INTER:                 -13.844
REMARK INTRA:                  -2.887
REMARK UNBOUND:                -2.240
REMARK SMILES C[C@H](NC(=O)CCC(=O)O)C(=O)N[C@@H](C)C(=O)N1CCC[C@@H]1C(=O)N[C@H](Cc1ccccc1)C(=O)Nc1ccc([N+](=O)[O-])cc1
REMARK SMILES IDX 14 1 15 2 13 3 11 4 12 5 2 7 1 8 3 9 4 10 5 11 6 13 7 14
REMARK SMILES IDX 8 15 9 16 10 17 16 19 17 20 18 21 19 22 22 23 20 24 21 25
REMARK SMILES IDX 23 26 24 27 25 28 26 30 27 31 28 32 29 33 33 34 30 35 32 36
REMARK SMILES IDX 31 37 34 38 35 39 36 40 37 42 38 43 45 44 39 45 44 46 40 47
REMARK SMILES IDX 41 48 42 49 43 50
REMARK H PARENT 13 6 3 12 10 18 25 29 36 41
ROOT
ATOM      1  C   UNL     1       4.268 -19.662  -0.809  1.00  0.00    +0.168 C 
ATOM      2  C   UNL     1       4.233 -20.770  -1.856  1.00  0.00    +0.041 C 
ENDROOT
BRANCH   1   3
ATOM      3  N   UNL     1       4.975 -18.494  -1.321  1.00  0.00    -0.343 N 
ATOM      4  C   UNL     1       4.354 -17.298  -1.604  1.00  0.00    +0.242 C 
ATOM      5  O   UNL     1       3.146 -17.135  -1.461  1.00  0.00    -0.273 OA
ATOM      6  H   UNL     1       5.993 -18.521  -1.300  1.00  0.00    +0.164 HD
BRANCH   4   7
ATOM      7  C   UNL     1       5.332 -16.167  -1.982  1.00  0.00    +0.168 C 
ATOM      8  C   UNL     1       6.231 -15.798  -0.809  1.00  0.00    +0.041 C 
BRANCH   7   9
ATOM      9  N   UNL     1       4.589 -15.000  -2.465  1.00  0.00    -0.345 N 
ATOM     10  C   UNL     1       5.080 -14.200  -3.470  1.00  0.00    +0.221 C 
ATOM     11  O   UNL     1       6.097 -14.459  -4.103  1.00  0.00    -0.275 OA
ATOM     12  H   UNL     1       3.858 -14.637  -1.864  1.00  0.00    +0.164 HD
BRANCH  10  13
ATOM     13  C   UNL     1       4.206 -12.994  -3.751  1.00  0.00    +0.111 C 
BRANCH  13  14
ATOM     14  C   UNL     1       3.495 -13.115  -5.093  1.00  0.00    +0.132 C 
BRANCH  14  15
ATOM     15  C   UNL     1       4.255 -12.393  -6.170  1.00  0.00    +0.303 C 
ATOM     16  O   UNL     1       4.192 -12.589  -7.371  1.00  0.00    -0.252 OA
BRANCH  15  17
ATOM     17  O   UNL     1       5.110 -11.482  -5.665  1.00  0.00    -0.481 OA
ATOM     18  H   UNL     1       4.884 -11.446  -4.712  1.00  0.00    +0.296 HD
ENDBRANCH  15  17
ENDBRANCH  14  15
ENDBRANCH  13  14
ENDBRANCH  10  13
ENDBRANCH   7   9
ENDBRANCH   4   7
ENDBRANCH   1   3
BRANCH   1  19
ATOM     19  C   UNL     1       5.023 -20.137   0.448  1.00  0.00    +0.245 C 
ATOM     20  O   UNL     1       6.225 -20.423   0.386  1.00  0.00    -0.272 OA
BRANCH  19  21
ATOM     21  N   UNL     1       4.317 -20.269   1.621  1.00  0.00    -0.329 N 
ATOM     22  C   UNL     1       3.505 -21.395   2.055  1.00  0.00    +0.120 C 
ATOM     23  C   UNL     1       4.243 -19.162   2.568  1.00  0.00    +0.174 C 
ATOM     24  C   UNL     1       2.794 -20.908   3.312  1.00  0.00    +0.024 C 
ATOM     25  C   UNL     1       3.718 -19.817   3.845  1.00  0.00    +0.037 C 
BRANCH  23  26
ATOM     26  C   UNL     1       3.266 -18.066   2.085  1.00  0.00    +0.243 C 
ATOM     27  O   UNL     1       2.183 -18.305   1.555  1.00  0.00    -0.273 OA
ATOM     28  N   UNL     1       3.693 -16.776   2.353  1.00  0.00    -0.342 N 
ATOM     29  H   UNL     1       4.376 -16.674   3.096  1.00  0.00    +0.164 HD
BRANCH  28  30
ATOM     30  C   UNL     1       2.761 -15.654   2.211  1.00  0.00    +0.176 C 
BRANCH  30  31
ATOM     31  C   UNL     1       3.105 -14.825   0.965  1.00  0.00    +0.070 C 
BRANCH  31  32
ATOM     32  C   UNL     1       1.885 -14.347   0.212  1.00  0.00    -0.045 A 
ATOM     33  C   UNL     1       0.618 -14.871   0.502  1.00  0.00    +0.004 A 
ATOM     34  C   UNL     1       2.013 -13.399  -0.813  1.00  0.00    +0.004 A 
ATOM     35  C   UNL     1      -0.499 -14.463  -0.228  1.00  0.00    +0.000 A 
ATOM     36  C   UNL     1       0.894 -12.992  -1.541  1.00  0.00    +0.000 A 
ATOM     37  C   UNL     1      -0.360 -13.526  -1.250  1.00  0.00    +0.000 A 
ENDBRANCH  31  32
ENDBRANCH  30  31
BRANCH  30  38
ATOM     38  C   UNL     1       2.894 -14.796   3.493  1.00  0.00    +0.247 C 
ATOM     39  O   UNL     1       1.935 -14.656   4.253  1.00  0.00    -0.272 OA
ATOM     40  N   UNL     1       4.168 -14.290   3.686  1.00  0.00    -0.324 N 
ATOM     41  H   UNL     1       4.865 -14.544   2.993  1.00  0.00    +0.170 HD
BRANCH  40  42
ATOM     42  C   UNL     1       4.634 -13.509   4.761  1.00  0.00    +0.041 A 
ATOM     43  C   UNL     1       4.509 -13.872   6.105  1.00  0.00    +0.033 A 
ATOM     44  C   UNL     1       5.259 -12.295   4.438  1.00  0.00    +0.033 A 
ATOM     45  C   UNL     1       5.001 -13.039   7.118  1.00  0.00    +0.088 A 
ATOM     46  C   UNL     1       5.755 -11.455   5.441  1.00  0.00    +0.088 A 
ATOM     47  C   UNL     1       5.623 -11.832   6.782  1.00  0.00    +0.269 A 
BRANCH  47  48
ATOM     48  N   UNL     1       6.142 -10.958   7.841  1.00  0.00    +0.062 N 
ATOM     49  O   UNL     1       6.372 -11.468   8.946  1.00  0.00    -0.258 OA
ATOM     50  O   UNL     1       6.316  -9.762   7.567  1.00  0.00    -0.258 OA
ENDBRANCH  47  48
ENDBRANCH  40  42
ENDBRANCH  30  38
ENDBRANCH  28  30
ENDBRANCH  23  26
ENDBRANCH  19  21
ENDBRANCH   1  19
TORSDOF 16
ENDMDL
MODEL 8
REMARK VINA RESULT:    -7.573      4.443      8.349
REMARK INTER + INTRA:         -16.675
REMARK INTER:                 -13.806
REMARK INTRA:                  -2.870
REMARK UNBOUND:                -2.240
REMARK SMILES C[C@H](NC(=O)CCC(=O)O)C(=O)N[C@@H](C)C(=O)N1CCC[C@@H]1C(=O)N[C@H](Cc1ccccc1)C(=O)Nc1ccc([N+](=O)[O-])cc1
REMARK SMILES IDX 14 1 15 2 13 3 11 4 12 5 2 7 1 8 3 9 4 10 5 11 6 13 7 14
REMARK SMILES IDX 8 15 9 16 10 17 16 19 17 20 18 21 19 22 22 23 20 24 21 25
REMARK SMILES IDX 23 26 24 27 25 28 26 30 27 31 28 32 29 33 33 34 30 35 32 36
REMARK SMILES IDX 31 37 34 38 35 39 36 40 37 42 38 43 45 44 39 45 44 46 40 47
REMARK SMILES IDX 41 48 42 49 43 50
REMARK H PARENT 13 6 3 12 10 18 25 29 36 41
ROOT
ATOM      1  C   UNL     1       4.912 -13.921  -2.765  1.00  0.00    +0.168 C 
ATOM      2  C   UNL     1       5.471 -14.038  -4.179  1.00  0.00    +0.041 C 
ENDROOT
BRANCH   1   3
ATOM      3  N   UNL     1       5.965 -14.132  -1.778  1.00  0.00    -0.343 N 
ATOM      4  C   UNL     1       5.919 -13.616  -0.503  1.00  0.00    +0.242 C 
ATOM      5  O   UNL     1       4.988 -12.920  -0.108  1.00  0.00    -0.273 OA
ATOM      6  H   UNL     1       6.671 -14.833  -1.996  1.00  0.00    +0.164 HD
BRANCH   4   7
ATOM      7  C   UNL     1       7.067 -14.106   0.404  1.00  0.00    +0.168 C 
ATOM      8  C   UNL     1       8.375 -14.213  -0.369  1.00  0.00    +0.041 C 
BRANCH   7   9
ATOM      9  N   UNL     1       6.710 -15.387   1.018  1.00  0.00    -0.345 N 
ATOM     10  C   UNL     1       6.147 -15.452   2.271  1.00  0.00    +0.221 C 
ATOM     11  O   UNL     1       5.801 -14.464   2.907  1.00  0.00    -0.275 OA
ATOM     12  H   UNL     1       7.138 -16.221   0.631  1.00  0.00    +0.164 HD
BRANCH  10  13
ATOM     13  C   UNL     1       5.945 -16.872   2.760  1.00  0.00    +0.111 C 
BRANCH  13  14
ATOM     14  C   UNL     1       4.686 -17.004   3.608  1.00  0.00    +0.132 C 
BRANCH  14  15
ATOM     15  C   UNL     1       5.030 -17.082   5.069  1.00  0.00    +0.303 C 
ATOM     16  O   UNL     1       5.125 -18.089   5.748  1.00  0.00    -0.252 OA
BRANCH  15  17
ATOM     17  O   UNL     1       5.186 -15.863   5.620  1.00  0.00    -0.481 OA
ATOM     18  H   UNL     1       4.402 -15.760   6.200  1.00  0.00    +0.296 HD
ENDBRANCH  15  17
ENDBRANCH  14  15
ENDBRANCH  13  14
ENDBRANCH  10  13
ENDBRANCH   7   9
ENDBRANCH   4   7
ENDBRANCH   1   3
BRANCH   1  19
ATOM     19  C   UNL     1       3.837 -15.000  -2.524  1.00  0.00    +0.245 C 
ATOM     20  O   UNL     1       4.042 -16.173  -2.857  1.00  0.00    -0.272 OA
BRANCH  19  21
ATOM     21  N   UNL     1       2.640 -14.614  -1.966  1.00  0.00    -0.329 N 
ATOM     22  C   UNL     1       2.180 -13.263  -1.682  1.00  0.00    +0.120 C 
ATOM     23  C   UNL     1       1.690 -15.612  -1.489  1.00  0.00    +0.174 C 
ATOM     24  C   UNL     1       0.899 -13.444  -0.877  1.00  0.00    +0.024 C 
ATOM     25  C   UNL     1       0.397 -14.819  -1.308  1.00  0.00    +0.037 C 
BRANCH  23  26
ATOM     26  C   UNL     1       2.138 -16.224  -0.142  1.00  0.00    +0.243 C 
ATOM     27  O   UNL     1       2.816 -15.621   0.688  1.00  0.00    -0.273 OA
ATOM     28  N   UNL     1       1.660 -17.505   0.079  1.00  0.00    -0.342 N 
ATOM     29  H   UNL     1       0.837 -17.774  -0.449  1.00  0.00    +0.164 HD
BRANCH  28  30
ATOM     30  C   UNL     1       1.764 -18.103   1.412  1.00  0.00    +0.176 C 
BRANCH  30  31
ATOM     31  C   UNL     1       2.850 -19.189   1.431  1.00  0.00    +0.070 C 
BRANCH  31  32
ATOM     32  C   UNL     1       3.175 -19.731   0.058  1.00  0.00    -0.045 A 
ATOM     33  C   UNL     1       4.294 -19.266  -0.645  1.00  0.00    +0.004 A 
ATOM     34  C   UNL     1       2.337 -20.680  -0.544  1.00  0.00    +0.004 A 
ATOM     35  C   UNL     1       4.564 -19.733  -1.932  1.00  0.00    +0.000 A 
ATOM     36  C   UNL     1       2.610 -21.146  -1.831  1.00  0.00    +0.000 A 
ATOM     37  C   UNL     1       3.720 -20.670  -2.525  1.00  0.00    +0.000 A 
ENDBRANCH  31  32
ENDBRANCH  30  31
BRANCH  30  38
ATOM     38  C   UNL     1       0.377 -18.709   1.740  1.00  0.00    +0.247 C 
ATOM     39  O   UNL     1      -0.642 -18.252   1.223  1.00  0.00    -0.272 OA
ATOM     40  N   UNL     1       0.441 -19.799   2.592  1.00  0.00    -0.324 N 
ATOM     41  H   UNL     1       1.369 -20.087   2.888  1.00  0.00    +0.170 HD
BRANCH  40  42
ATOM     42  C   UNL     1      -0.622 -20.597   3.056  1.00  0.00    +0.041 A 
ATOM     43  C   UNL     1      -1.803 -20.088   3.603  1.00  0.00    +0.033 A 
ATOM     44  C   UNL     1      -0.463 -21.987   2.951  1.00  0.00    +0.033 A 
ATOM     45  C   UNL     1      -2.816 -20.950   4.041  1.00  0.00    +0.088 A 
ATOM     46  C   UNL     1      -1.468 -22.859   3.384  1.00  0.00    +0.088 A 
ATOM     47  C   UNL     1      -2.645 -22.334   3.930  1.00  0.00    +0.269 A 
BRANCH  47  48
ATOM     48  N   UNL     1      -3.706 -23.240   4.385  1.00  0.00    +0.062 N 
ATOM     49  O   UNL     1      -3.734 -24.382   3.903  1.00  0.00    -0.258 OA
ATOM     50  O   UNL     1      -4.512 -22.810   5.223  1.00  0.00    -0.258 OA
ENDBRANCH  47  48
ENDBRANCH  40  42
ENDBRANCH  30  38
ENDBRANCH  28  30
ENDBRANCH  23  26
ENDBRANCH  19  21
ENDBRANCH   1  19
TORSDOF 16
ENDMDL
MODEL 9
REMARK VINA RESULT:    -7.382      4.345      9.061
REMARK INTER + INTRA:         -16.311
REMARK INTER:                 -12.400
REMARK INTRA:                  -3.911
REMARK UNBOUND:                -2.240
REMARK SMILES C[C@H](NC(=O)CCC(=O)O)C(=O)N[C@@H](C)C(=O)N1CCC[C@@H]1C(=O)N[C@H](Cc1ccccc1)C(=O)Nc1ccc([N+](=O)[O-])cc1
REMARK SMILES IDX 14 1 15 2 13 3 11 4 12 5 2 7 1 8 3 9 4 10 5 11 6 13 7 14
REMARK SMILES IDX 8 15 9 16 10 17 16 19 17 20 18 21 19 22 22 23 20 24 21 25
REMARK SMILES IDX 23 26 24 27 25 28 26 30 27 31 28 32 29 33 33 34 30 35 32 36
REMARK SMILES IDX 31 37 34 38 35 39 36 40 37 42 38 43 45 44 39 45 44 46 40 47
REMARK SMILES IDX 41 48 42 49 43 50
REMARK H PARENT 13 6 3 12 10 18 25 29 36 41
ROOT
ATOM      1  C   UNL     1       5.261 -19.245  -0.193  1.00  0.00    +0.168 C 
ATOM      2  C   UNL     1       6.433 -19.951   0.479  1.00  0.00    +0.041 C 
ENDROOT
BRANCH   1   3
ATOM      3  N   UNL     1       5.276 -17.819   0.114  1.00  0.00    -0.343 N 
ATOM      4  C   UNL     1       5.188 -16.838  -0.848  1.00  0.00    +0.242 C 
ATOM      5  O   UNL     1       5.106 -17.096  -2.045  1.00  0.00    -0.273 OA
ATOM      6  H   UNL     1       5.174 -17.553   1.092  1.00  0.00    +0.164 HD
BRANCH   4   7
ATOM      7  C   UNL     1       5.065 -15.414  -0.268  1.00  0.00    +0.168 C 
ATOM      8  C   UNL     1       5.872 -14.413  -1.085  1.00  0.00    +0.041 C 
BRANCH   7   9
ATOM      9  N   UNL     1       5.481 -15.405   1.137  1.00  0.00    -0.345 N 
ATOM     10  C   UNL     1       4.691 -14.851   2.117  1.00  0.00    +0.221 C 
ATOM     11  O   UNL     1       3.556 -14.436   1.915  1.00  0.00    -0.275 OA
ATOM     12  H   UNL     1       6.465 -15.556   1.329  1.00  0.00    +0.164 HD
BRANCH  10  13
ATOM     13  C   UNL     1       5.346 -14.859   3.484  1.00  0.00    +0.111 C 
BRANCH  13  14
ATOM     14  C   UNL     1       4.898 -16.053   4.317  1.00  0.00    +0.132 C 
BRANCH  14  15
ATOM     15  C   UNL     1       5.783 -17.243   4.067  1.00  0.00    +0.303 C 
ATOM     16  O   UNL     1       6.433 -17.475   3.063  1.00  0.00    -0.252 OA
BRANCH  15  17
ATOM     17  O   UNL     1       5.758 -18.118   5.089  1.00  0.00    -0.481 OA
ATOM     18  H   UNL     1       6.700 -18.222   5.339  1.00  0.00    +0.296 HD
ENDBRANCH  15  17
ENDBRANCH  14  15
ENDBRANCH  13  14
ENDBRANCH  10  13
ENDBRANCH   7   9
ENDBRANCH   4   7
ENDBRANCH   1   3
BRANCH   1  19
ATOM     19  C   UNL     1       3.924 -19.809   0.330  1.00  0.00    +0.245 C 
ATOM     20  O   UNL     1       2.851 -19.420  -0.146  1.00  0.00    -0.272 OA
BRANCH  19  21
ATOM     21  N   UNL     1       3.961 -20.722   1.358  1.00  0.00    -0.329 N 
ATOM     22  C   UNL     1       3.713 -22.154   1.293  1.00  0.00    +0.120 C 
ATOM     23  C   UNL     1       4.180 -20.280   2.731  1.00  0.00    +0.174 C 
ATOM     24  C   UNL     1       3.674 -22.614   2.745  1.00  0.00    +0.024 C 
ATOM     25  C   UNL     1       4.519 -21.572   3.474  1.00  0.00    +0.037 C 
BRANCH  23  26
ATOM     26  C   UNL     1       2.910 -19.633   3.329  1.00  0.00    +0.243 C 
ATOM     27  O   UNL     1       2.878 -19.089   4.431  1.00  0.00    -0.273 OA
ATOM     28  N   UNL     1       1.812 -19.669   2.486  1.00  0.00    -0.342 N 
ATOM     29  H   UNL     1       2.008 -19.784   1.498  1.00  0.00    +0.164 HD
BRANCH  28  30
ATOM     30  C   UNL     1       0.630 -18.860   2.793  1.00  0.00    +0.176 C 
BRANCH  30  31
ATOM     31  C   UNL     1      -0.624 -19.479   2.156  1.00  0.00    +0.070 C 
BRANCH  31  32
ATOM     32  C   UNL     1      -1.231 -20.585   2.988  1.00  0.00    -0.045 A 
ATOM     33  C   UNL     1      -0.654 -21.862   3.004  1.00  0.00    +0.004 A 
ATOM     34  C   UNL     1      -2.401 -20.356   3.724  1.00  0.00    +0.004 A 
ATOM     35  C   UNL     1      -1.245 -22.894   3.736  1.00  0.00    +0.000 A 
ATOM     36  C   UNL     1      -2.989 -21.389   4.455  1.00  0.00    +0.000 A 
ATOM     37  C   UNL     1      -2.413 -22.658   4.458  1.00  0.00    +0.000 A 
ENDBRANCH  31  32
ENDBRANCH  30  31
BRANCH  30  38
ATOM     38  C   UNL     1       0.893 -17.446   2.220  1.00  0.00    +0.247 C 
ATOM     39  O   UNL     1       1.270 -16.534   2.957  1.00  0.00    -0.272 OA
ATOM     40  N   UNL     1       0.715 -17.366   0.850  1.00  0.00    -0.324 N 
ATOM     41  H   UNL     1       0.454 -18.225   0.377  1.00  0.00    +0.170 HD
BRANCH  40  42
ATOM     42  C   UNL     1       0.907 -16.246   0.017  1.00  0.00    +0.041 A 
ATOM     43  C   UNL     1       0.468 -14.956   0.326  1.00  0.00    +0.033 A 
ATOM     44  C   UNL     1       1.583 -16.465  -1.192  1.00  0.00    +0.033 A 
ATOM     45  C   UNL     1       0.699 -13.893  -0.556  1.00  0.00    +0.088 A 
ATOM     46  C   UNL     1       1.822 -15.411  -2.081  1.00  0.00    +0.088 A 
ATOM     47  C   UNL     1       1.377 -14.125  -1.758  1.00  0.00    +0.269 A 
BRANCH  47  48
ATOM     48  N   UNL     1       1.623 -13.013  -2.684  1.00  0.00    +0.062 N 
ATOM     49  O   UNL     1       2.011 -13.292  -3.827  1.00  0.00    -0.258 OA
ATOM     50  O   UNL     1       1.432 -11.861  -2.267  1.00  0.00    -0.258 OA
ENDBRANCH  47  48
ENDBRANCH  40  42
ENDBRANCH  30  38
ENDBRANCH  28  30
ENDBRANCH  23  26
ENDBRANCH  19  21
ENDBRANCH   1  19
TORSDOF 16
ENDMDL
