MODEL 1
REMARK VINA RESULT:    -6.242      0.000      0.000
REMARK INTER + INTRA:         -10.128
REMARK INTER:                  -9.162
REMARK INTRA:                  -0.966
REMARK UNBOUND:                -0.966
REMARK SMILES O=S(=O)(O)OC[C@@H]1O[C@H](O[C@H]2[C@@H]3OC[C@H]2O[C@@H](O)[C@H]3O)[C@@H](O)[C@H](O)[C@@H]1O
REMARK SMILES IDX 9 1 21 2 23 3 25 4 7 5 8 6 10 7 11 8 14 9 15 10 13 11 16 12
REMARK SMILES IDX 12 13 17 14 19 15 18 16 20 18 22 20 24 22 6 24 5 25 2 26
REMARK SMILES IDX 1 27 3 28 4 29 26 31
REMARK H PARENT 18 17 20 19 22 21 24 23 4 30 26 32
ROOT
ATOM      1  C   UNL     1     -16.934   3.538  -0.918  1.00  0.00    +0.282 C 
ATOM      2  C   UNL     1     -18.052   4.543  -1.256  1.00  0.00    +0.202 C 
ATOM      3  C   UNL     1     -17.720   5.191  -2.590  1.00  0.00    +0.179 C 
ATOM      4  C   UNL     1     -17.747   4.127  -3.690  1.00  0.00    +0.177 C 
ATOM      5  C   UNL     1     -17.201   2.758  -3.218  1.00  0.00    +0.180 C 
ATOM      6  O   UNL     1     -16.371   2.873  -2.047  1.00  0.00    -0.341 OA
ENDROOT
BRANCH   1   7
ATOM      7  O   UNL     1     -17.440   2.637   0.071  1.00  0.00    -0.341 OA
BRANCH   7   8
ATOM      8  C   UNL     1     -16.459   2.257   1.030  1.00  0.00    +0.184 C 
ATOM      9  C   UNL     1     -15.782   1.173   2.995  1.00  0.00    +0.195 C 
ATOM     10  C   UNL     1     -16.848   1.073   1.902  1.00  0.00    +0.179 C 
ATOM     11  O   UNL     1     -15.506   2.589   3.150  1.00  0.00    -0.370 OA
ATOM     12  O   UNL     1     -18.189   1.234   2.398  1.00  0.00    -0.342 OA
ATOM     13  C   UNL     1     -16.300   3.278   2.150  1.00  0.00    +0.184 C 
ATOM     14  C   UNL     1     -18.432   2.388   3.196  1.00  0.00    +0.279 C 
ATOM     15  C   UNL     1     -17.673   3.649   2.728  1.00  0.00    +0.202 C 
BRANCH  14  16
ATOM     16  O   UNL     1     -18.106   2.085   4.550  1.00  0.00    -0.366 OA
ATOM     17  H   UNL     1     -17.772   2.924   4.914  1.00  0.00    +0.213 HD
ENDBRANCH  14  16
BRANCH  15  18
ATOM     18  O   UNL     1     -17.523   4.583   3.805  1.00  0.00    -0.385 OA
ATOM     19  H   UNL     1     -18.431   4.929   3.946  1.00  0.00    +0.211 HD
ENDBRANCH  15  18
ENDBRANCH   7   8
ENDBRANCH   1   7
BRANCH   2  20
ATOM     20  O   UNL     1     -18.163   5.564  -0.250  1.00  0.00    -0.385 OA
ATOM     21  H   UNL     1     -19.078   5.903  -0.308  1.00  0.00    +0.211 HD
ENDBRANCH   2  20
BRANCH   3  22
ATOM     22  O   UNL     1     -18.677   6.218  -2.901  1.00  0.00    -0.387 OA
ATOM     23  H   UNL     1     -19.522   5.740  -3.037  1.00  0.00    +0.211 HD
ENDBRANCH   3  22
BRANCH   5  24
ATOM     24  C   UNL     1     -18.260   1.651  -3.063  1.00  0.00    +0.220 C 
BRANCH  24  25
ATOM     25  O   UNL     1     -17.643   0.515  -2.463  1.00  0.00    -0.245 OA
BRANCH  25  26
ATOM     26  S   UNL     1     -17.289  -0.748  -3.421  1.00  0.00    +0.397 S 
ATOM     27  O   UNL     1     -16.330  -0.351  -4.427  1.00  0.00    -0.169 OA
ATOM     28  O   UNL     1     -18.522  -1.423  -3.756  1.00  0.00    -0.169 OA
BRANCH  26  29
ATOM     29  O   UNL     1     -16.542  -1.743  -2.399  1.00  0.00    -0.264 OA
ATOM     30  H   UNL     1     -17.127  -2.518  -2.277  1.00  0.00    +0.236 HD
ENDBRANCH  26  29
ENDBRANCH  25  26
ENDBRANCH  24  25
ENDBRANCH   5  24
BRANCH   4  31
ATOM     31  O   UNL     1     -19.081   4.011  -4.198  1.00  0.00    -0.387 OA
ATOM     32  H   UNL     1     -19.336   3.077  -4.024  1.00  0.00    +0.211 HD
ENDBRANCH   4  31
TORSDOF 11
ENDMDL
MODEL 2
REMARK VINA RESULT:    -6.124     30.777     32.002
REMARK INTER + INTRA:          -9.955
REMARK INTER:                  -8.730
REMARK INTRA:                  -1.225
REMARK UNBOUND:                -0.966
REMARK SMILES O=S(=O)(O)OC[C@@H]1O[C@H](O[C@H]2[C@@H]3OC[C@H]2O[C@@H](O)[C@H]3O)[C@@H](O)[C@H](O)[C@@H]1O
REMARK SMILES IDX 9 1 21 2 23 3 25 4 7 5 8 6 10 7 11 8 14 9 15 10 13 11 16 12
REMARK SMILES IDX 12 13 17 14 19 15 18 16 20 18 22 20 24 22 6 24 5 25 2 26
REMARK SMILES IDX 1 27 3 28 4 29 26 31
REMARK H PARENT 18 17 20 19 22 21 24 23 4 30 26 32
ROOT
ATOM      1  C   UNL     1      14.373   1.878  -9.120  1.00  0.00    +0.282 C 
ATOM      2  C   UNL     1      13.067   2.353  -9.785  1.00  0.00    +0.202 C 
ATOM      3  C   UNL     1      13.113   1.963 -11.253  1.00  0.00    +0.179 C 
ATOM      4  C   UNL     1      13.128   0.437 -11.370  1.00  0.00    +0.177 C 
ATOM      5  C   UNL     1      13.955  -0.245 -10.254  1.00  0.00    +0.180 C 
ATOM      6  O   UNL     1      14.894   0.656  -9.639  1.00  0.00    -0.341 OA
ENDROOT
BRANCH   1   7
ATOM      7  O   UNL     1      14.157   1.842  -7.707  1.00  0.00    -0.341 OA
BRANCH   7   8
ATOM      8  C   UNL     1      15.218   2.437  -6.967  1.00  0.00    +0.184 C 
ATOM      9  C   UNL     1      16.233   3.118  -4.967  1.00  0.00    +0.195 C 
ATOM     10  C   UNL     1      15.247   2.072  -5.491  1.00  0.00    +0.179 C 
ATOM     11  O   UNL     1      16.031   4.298  -5.786  1.00  0.00    -0.370 OA
ATOM     12  O   UNL     1      13.933   2.190  -4.918  1.00  0.00    -0.342 OA
ATOM     13  C   UNL     1      15.045   3.942  -6.790  1.00  0.00    +0.184 C 
ATOM     14  C   UNL     1      13.333   3.479  -4.977  1.00  0.00    +0.279 C 
ATOM     15  C   UNL     1      13.632   4.256  -6.278  1.00  0.00    +0.202 C 
BRANCH  14  16
ATOM     16  O   UNL     1      13.754   4.232  -3.842  1.00  0.00    -0.366 OA
ATOM     17  H   UNL     1      14.452   4.818  -4.183  1.00  0.00    +0.213 HD
ENDBRANCH  14  16
BRANCH  15  18
ATOM     18  O   UNL     1      13.478   5.667  -6.077  1.00  0.00    -0.385 OA
ATOM     19  H   UNL     1      13.996   6.068  -6.808  1.00  0.00    +0.211 HD
ENDBRANCH  15  18
ENDBRANCH   7   8
ENDBRANCH   1   7
BRANCH   2  20
ATOM     20  O   UNL     1      12.912   3.779  -9.680  1.00  0.00    -0.385 OA
ATOM     21  H   UNL     1      12.856   4.113 -10.597  1.00  0.00    +0.211 HD
ENDBRANCH   2  20
BRANCH   3  22
ATOM     22  O   UNL     1      11.964   2.480 -11.945  1.00  0.00    -0.387 OA
ATOM     23  H   UNL     1      12.332   2.968 -12.712  1.00  0.00    +0.211 HD
ENDBRANCH   3  22
BRANCH   5  24
ATOM     24  C   UNL     1      13.127  -1.013  -9.207  1.00  0.00    +0.220 C 
BRANCH  24  25
ATOM     25  O   UNL     1      13.092  -2.389  -9.579  1.00  0.00    -0.245 OA
BRANCH  25  26
ATOM     26  S   UNL     1      11.639  -3.100  -9.714  1.00  0.00    +0.397 S 
ATOM     27  O   UNL     1      11.634  -4.003 -10.842  1.00  0.00    -0.169 OA
ATOM     28  O   UNL     1      10.621  -2.090  -9.533  1.00  0.00    -0.169 OA
BRANCH  26  29
ATOM     29  O   UNL     1      11.576  -3.990  -8.375  1.00  0.00    -0.264 OA
ATOM     30  H   UNL     1      11.160  -3.436  -7.683  1.00  0.00    +0.236 HD
ENDBRANCH  26  29
ENDBRANCH  25  26
ENDBRANCH  24  25
ENDBRANCH   5  24
BRANCH   4  31
ATOM     31  O   UNL     1      11.780  -0.046 -11.393  1.00  0.00    -0.387 OA
ATOM     32  H   UNL     1      11.862  -1.024 -11.331  1.00  0.00    +0.211 HD
ENDBRANCH   4  31
TORSDOF 11
ENDMDL
MODEL 3
REMARK VINA RESULT:    -5.807     21.303     24.483
REMARK INTER + INTRA:          -9.489
REMARK INTER:                  -8.241
REMARK INTRA:                  -1.248
REMARK UNBOUND:                -0.966
REMARK SMILES O=S(=O)(O)OC[C@@H]1O[C@H](O[C@H]2[C@@H]3OC[C@H]2O[C@@H](O)[C@H]3O)[C@@H](O)[C@H](O)[C@@H]1O
REMARK SMILES IDX 9 1 21 2 23 3 25 4 7 5 8 6 10 7 11 8 14 9 15 10 13 11 16 12
REMARK SMILES IDX 12 13 17 14 19 15 18 16 20 18 22 20 24 22 6 24 5 25 2 26
REMARK SMILES IDX 1 27 3 28 4 29 26 31
REMARK H PARENT 18 17 20 19 22 21 24 23 4 30 26 32
ROOT
ATOM      1  C   UNL     1      -2.363   0.669  17.561  1.00  0.00    +0.282 C 
ATOM      2  C   UNL     1      -1.986   1.774  16.555  1.00  0.00    +0.202 C 
ATOM      3  C   UNL     1      -1.702   3.047  17.333  1.00  0.00    +0.179 C 
ATOM      4  C   UNL     1      -0.474   2.834  18.223  1.00  0.00    +0.177 C 
ATOM      5  C   UNL     1      -0.401   1.407  18.816  1.00  0.00    +0.180 C 
ATOM      6  O   UNL     1      -1.680   0.744  18.811  1.00  0.00    -0.341 OA
ENDROOT
BRANCH   1   7
ATOM      7  O   UNL     1      -2.202  -0.592  16.907  1.00  0.00    -0.341 OA
BRANCH   7   8
ATOM      8  C   UNL     1      -3.415  -1.334  16.825  1.00  0.00    +0.184 C 
ATOM      9  C   UNL     1      -4.619  -3.334  16.615  1.00  0.00    +0.195 C 
ATOM     10  C   UNL     1      -3.274  -2.818  17.128  1.00  0.00    +0.179 C 
ATOM     11  O   UNL     1      -4.965  -2.487  15.489  1.00  0.00    -0.370 OA
ATOM     12  O   UNL     1      -2.146  -3.369  16.424  1.00  0.00    -0.342 OA
ATOM     13  C   UNL     1      -3.927  -1.477  15.397  1.00  0.00    +0.184 C 
ATOM     14  C   UNL     1      -2.181  -3.274  15.004  1.00  0.00    +0.279 C 
ATOM     15  C   UNL     1      -2.799  -1.961  14.475  1.00  0.00    +0.202 C 
BRANCH  14  16
ATOM     16  O   UNL     1      -2.888  -4.399  14.488  1.00  0.00    -0.366 OA
ATOM     17  H   UNL     1      -2.496  -5.164  14.945  1.00  0.00    +0.213 HD
ENDBRANCH  14  16
BRANCH  15  18
ATOM     18  O   UNL     1      -3.286  -2.129  13.138  1.00  0.00    -0.385 OA
ATOM     19  H   UNL     1      -3.717  -3.011  13.152  1.00  0.00    +0.211 HD
ENDBRANCH  15  18
ENDBRANCH   7   8
ENDBRANCH   1   7
BRANCH   2  20
ATOM     20  O   UNL     1      -3.050   2.019  15.620  1.00  0.00    -0.385 OA
ATOM     21  H   UNL     1      -3.207   1.171  15.160  1.00  0.00    +0.211 HD
ENDBRANCH   2  20
BRANCH   3  22
ATOM     22  O   UNL     1      -1.450   4.140  16.433  1.00  0.00    -0.387 OA
ATOM     23  H   UNL     1      -1.175   3.714  15.594  1.00  0.00    +0.211 HD
ENDBRANCH   3  22
BRANCH   5  24
ATOM     24  C   UNL     1       0.710   0.514  18.234  1.00  0.00    +0.220 C 
BRANCH  24  25
ATOM     25  O   UNL     1       1.969   0.997  18.697  1.00  0.00    -0.245 OA
BRANCH  25  26
ATOM     26  S   UNL     1       3.290   0.613  17.836  1.00  0.00    +0.397 S 
ATOM     27  O   UNL     1       3.037  -0.568  17.042  1.00  0.00    -0.169 OA
ATOM     28  O   UNL     1       4.444   0.728  18.699  1.00  0.00    -0.169 OA
BRANCH  26  29
ATOM     29  O   UNL     1       3.407   1.864  16.829  1.00  0.00    -0.264 OA
ATOM     30  H   UNL     1       2.584   1.880  16.298  1.00  0.00    +0.236 HD
ENDBRANCH  26  29
ENDBRANCH  25  26
ENDBRANCH  24  25
ENDBRANCH   5  24
BRANCH   4  31
ATOM     31  O   UNL     1       0.706   3.152  17.477  1.00  0.00    -0.387 OA
ATOM     32  H   UNL     1       0.545   4.056  17.125  1.00  0.00    +0.211 HD
ENDBRANCH   4  31
TORSDOF 11
ENDMDL
MODEL 4
REMARK VINA RESULT:    -5.679     23.541     26.104
REMARK INTER + INTRA:          -9.302
REMARK INTER:                  -7.558
REMARK INTRA:                  -1.744
REMARK UNBOUND:                -0.966
REMARK SMILES O=S(=O)(O)OC[C@@H]1O[C@H](O[C@H]2[C@@H]3OC[C@H]2O[C@@H](O)[C@H]3O)[C@@H](O)[C@H](O)[C@@H]1O
REMARK SMILES IDX 9 1 21 2 23 3 25 4 7 5 8 6 10 7 11 8 14 9 15 10 13 11 16 12
REMARK SMILES IDX 12 13 17 14 19 15 18 16 20 18 22 20 24 22 6 24 5 25 2 26
REMARK SMILES IDX 1 27 3 28 4 29 26 31
REMARK H PARENT 18 17 20 19 22 21 24 23 4 30 26 32
ROOT
ATOM      1  C   UNL     1      -0.761   1.319  17.377  1.00  0.00    +0.282 C 
ATOM      2  C   UNL     1      -0.766   2.745  17.962  1.00  0.00    +0.202 C 
ATOM      3  C   UNL     1      -1.858   3.540  17.266  1.00  0.00    +0.179 C 
ATOM      4  C   UNL     1      -3.221   2.929  17.604  1.00  0.00    +0.177 C 
ATOM      5  C   UNL     1      -3.183   1.385  17.699  1.00  0.00    +0.180 C 
ATOM      6  O   UNL     1      -2.048   0.821  17.014  1.00  0.00    -0.341 OA
ENDROOT
BRANCH   1   7
ATOM      7  O   UNL     1      -0.069   0.471  18.297  1.00  0.00    -0.341 OA
BRANCH   7   8
ATOM      8  C   UNL     1       0.987  -0.264  17.688  1.00  0.00    +0.184 C 
ATOM      9  C   UNL     1       2.677  -1.889  17.717  1.00  0.00    +0.195 C 
ATOM     10  C   UNL     1       1.339  -1.569  18.386  1.00  0.00    +0.179 C 
ATOM     11  O   UNL     1       3.297  -0.607  17.440  1.00  0.00    -0.370 OA
ATOM     12  O   UNL     1       1.447  -1.365  19.807  1.00  0.00    -0.342 OA
ATOM     13  C   UNL     1       2.345   0.411  17.844  1.00  0.00    +0.184 C 
ATOM     14  C   UNL     1       2.429  -0.429  20.236  1.00  0.00    +0.279 C 
ATOM     15  C   UNL     1       2.577   0.800  19.311  1.00  0.00    +0.202 C 
BRANCH  14  16
ATOM     16  O   UNL     1       3.678  -1.104  20.369  1.00  0.00    -0.366 OA
ATOM     17  H   UNL     1       3.532  -1.747  21.085  1.00  0.00    +0.213 HD
ENDBRANCH  14  16
BRANCH  15  18
ATOM     18  O   UNL     1       3.868   1.403  19.467  1.00  0.00    -0.385 OA
ATOM     19  H   UNL     1       4.415   0.974  18.775  1.00  0.00    +0.211 HD
ENDBRANCH  15  18
ENDBRANCH   7   8
ENDBRANCH   1   7
BRANCH   2  20
ATOM     20  O   UNL     1       0.498   3.400  17.758  1.00  0.00    -0.385 OA
ATOM     21  H   UNL     1       0.294   4.256  17.332  1.00  0.00    +0.211 HD
ENDBRANCH   2  20
BRANCH   3  22
ATOM     22  O   UNL     1      -1.833   4.911  17.698  1.00  0.00    -0.387 OA
ATOM     23  H   UNL     1      -1.243   5.364  17.059  1.00  0.00    +0.211 HD
ENDBRANCH   3  22
BRANCH   5  24
ATOM     24  C   UNL     1      -3.335   0.815  19.121  1.00  0.00    +0.220 C 
BRANCH  24  25
ATOM     25  O   UNL     1      -3.126  -0.594  19.069  1.00  0.00    -0.245 OA
BRANCH  25  26
ATOM     26  S   UNL     1      -2.387  -1.298  20.331  1.00  0.00    +0.397 S 
ATOM     27  O   UNL     1      -1.745  -2.521  19.908  1.00  0.00    -0.169 OA
ATOM     28  O   UNL     1      -3.282  -1.250  21.465  1.00  0.00    -0.169 OA
BRANCH  26  29
ATOM     29  O   UNL     1      -1.231  -0.233  20.677  1.00  0.00    -0.264 OA
ATOM     30  H   UNL     1      -0.378  -0.653  20.444  1.00  0.00    +0.236 HD
ENDBRANCH  26  29
ENDBRANCH  25  26
ENDBRANCH  24  25
ENDBRANCH   5  24
BRANCH   4  31
ATOM     31  O   UNL     1      -3.710   3.516  18.815  1.00  0.00    -0.387 OA
ATOM     32  H   UNL     1      -4.373   4.182  18.522  1.00  0.00    +0.211 HD
ENDBRANCH   4  31
TORSDOF 11
ENDMDL
MODEL 5
REMARK VINA RESULT:    -5.624     21.051     23.016
REMARK INTER + INTRA:          -9.221
REMARK INTER:                  -7.647
REMARK INTRA:                  -1.574
REMARK UNBOUND:                -0.966
REMARK SMILES O=S(=O)(O)OC[C@@H]1O[C@H](O[C@H]2[C@@H]3OC[C@H]2O[C@@H](O)[C@H]3O)[C@@H](O)[C@H](O)[C@@H]1O
REMARK SMILES IDX 9 1 21 2 23 3 25 4 7 5 8 6 10 7 11 8 14 9 15 10 13 11 16 12
REMARK SMILES IDX 12 13 17 14 19 15 18 16 20 18 22 20 24 22 6 24 5 25 2 26
REMARK SMILES IDX 1 27 3 28 4 29 26 31
REMARK H PARENT 18 17 20 19 22 21 24 23 4 30 26 32
ROOT
ATOM      1  C   UNL     1      -9.035  21.074  -8.436  1.00  0.00    +0.282 C 
ATOM      2  C   UNL     1      -7.505  21.160  -8.597  1.00  0.00    +0.202 C 
ATOM      3  C   UNL     1      -7.109  20.340  -9.813  1.00  0.00    +0.179 C 
ATOM      4  C   UNL     1      -7.712  20.975 -11.069  1.00  0.00    +0.177 C 
ATOM      5  C   UNL     1      -9.122  21.565 -10.829  1.00  0.00    +0.180 C 
ATOM      6  O   UNL     1      -9.759  21.006  -9.664  1.00  0.00    -0.341 OA
ENDROOT
BRANCH   1   7
ATOM      7  O   UNL     1      -9.449  22.158  -7.599  1.00  0.00    -0.341 OA
BRANCH   7   8
ATOM      8  C   UNL     1     -10.292  21.743  -6.530  1.00  0.00    +0.184 C 
ATOM      9  C   UNL     1     -11.507  22.139  -4.565  1.00  0.00    +0.195 C 
ATOM     10  C   UNL     1     -11.013  22.873  -5.812  1.00  0.00    +0.179 C 
ATOM     11  O   UNL     1     -10.499  21.138  -4.270  1.00  0.00    -0.370 OA
ATOM     12  O   UNL     1     -10.100  23.945  -5.518  1.00  0.00    -0.342 OA
ATOM     13  C   UNL     1      -9.511  21.220  -5.329  1.00  0.00    +0.184 C 
ATOM     14  C   UNL     1      -8.990  23.618  -4.689  1.00  0.00    +0.279 C 
ATOM     15  C   UNL     1      -8.404  22.212  -4.945  1.00  0.00    +0.202 C 
BRANCH  14  16
ATOM     16  O   UNL     1      -9.383  23.752  -3.326  1.00  0.00    -0.366 OA
ATOM     17  H   UNL     1      -9.798  22.899  -3.106  1.00  0.00    +0.213 HD
ENDBRANCH  14  16
BRANCH  15  18
ATOM     18  O   UNL     1      -7.691  21.740  -3.795  1.00  0.00    -0.385 OA
ATOM     19  H   UNL     1      -7.577  22.542  -3.241  1.00  0.00    +0.211 HD
ENDBRANCH  15  18
ENDBRANCH   7   8
ENDBRANCH   1   7
BRANCH   2  20
ATOM     20  O   UNL     1      -6.826  20.645  -7.438  1.00  0.00    -0.385 OA
ATOM     21  H   UNL     1      -7.055  21.245  -6.702  1.00  0.00    +0.211 HD
ENDBRANCH   2  20
BRANCH   3  22
ATOM     22  O   UNL     1      -5.678  20.297  -9.944  1.00  0.00    -0.387 OA
ATOM     23  H   UNL     1      -5.509  19.603 -10.615  1.00  0.00    +0.211 HD
ENDBRANCH   3  22
BRANCH   5  24
ATOM     24  C   UNL     1      -9.197  23.103 -10.841  1.00  0.00    +0.220 C 
BRANCH  24  25
ATOM     25  O   UNL     1     -10.531  23.488 -11.164  1.00  0.00    -0.245 OA
BRANCH  25  26
ATOM     26  S   UNL     1     -11.408  24.221 -10.011  1.00  0.00    +0.397 S 
ATOM     27  O   UNL     1     -12.530  24.909 -10.606  1.00  0.00    -0.169 OA
ATOM     28  O   UNL     1     -10.499  24.876  -9.097  1.00  0.00    -0.169 OA
BRANCH  26  29
ATOM     29  O   UNL     1     -11.986  22.966  -9.184  1.00  0.00    -0.264 OA
ATOM     30  H   UNL     1     -11.343  22.774  -8.471  1.00  0.00    +0.236 HD
ENDBRANCH  26  29
ENDBRANCH  25  26
ENDBRANCH  24  25
ENDBRANCH   5  24
BRANCH   4  31
ATOM     31  O   UNL     1      -6.809  21.966 -11.574  1.00  0.00    -0.387 OA
ATOM     32  H   UNL     1      -7.164  22.821 -11.243  1.00  0.00    +0.211 HD
ENDBRANCH   4  31
TORSDOF 11
ENDMDL
MODEL 6
REMARK VINA RESULT:    -5.620     36.179     38.002
REMARK INTER + INTRA:          -9.214
REMARK INTER:                  -8.321
REMARK INTRA:                  -0.894
REMARK UNBOUND:                -0.966
REMARK SMILES O=S(=O)(O)OC[C@@H]1O[C@H](O[C@H]2[C@@H]3OC[C@H]2O[C@@H](O)[C@H]3O)[C@@H](O)[C@H](O)[C@@H]1O
REMARK SMILES IDX 9 1 21 2 23 3 25 4 7 5 8 6 10 7 11 8 14 9 15 10 13 11 16 12
REMARK SMILES IDX 12 13 17 14 19 15 18 16 20 18 22 20 24 22 6 24 5 25 2 26
REMARK SMILES IDX 1 27 3 28 4 29 26 31
REMARK H PARENT 18 17 20 19 22 21 24 23 4 30 26 32
ROOT
ATOM      1  C   UNL     1      21.363  10.258   2.420  1.00  0.00    +0.282 C 
ATOM      2  C   UNL     1      21.056   9.605   3.781  1.00  0.00    +0.202 C 
ATOM      3  C   UNL     1      20.724  10.708   4.772  1.00  0.00    +0.179 C 
ATOM      4  C   UNL     1      19.439  11.414   4.331  1.00  0.00    +0.177 C 
ATOM      5  C   UNL     1      19.322  11.549   2.794  1.00  0.00    +0.180 C 
ATOM      6  O   UNL     1      20.597  11.427   2.135  1.00  0.00    -0.341 OA
ENDROOT
BRANCH   1   7
ATOM      7  O   UNL     1      21.243   9.249   1.413  1.00  0.00    -0.341 OA
BRANCH   7   8
ATOM      8  C   UNL     1      20.816   7.994   1.933  1.00  0.00    +0.184 C 
ATOM      9  C   UNL     1      20.689   5.654   1.878  1.00  0.00    +0.195 C 
ATOM     10  C   UNL     1      21.603   6.795   1.427  1.00  0.00    +0.179 C 
ATOM     11  O   UNL     1      19.337   6.174   1.797  1.00  0.00    -0.370 OA
ATOM     12  O   UNL     1      21.764   6.866  -0.001  1.00  0.00    -0.342 OA
ATOM     13  C   UNL     1      19.452   7.566   1.404  1.00  0.00    +0.184 C 
ATOM     14  C   UNL     1      20.566   6.885  -0.770  1.00  0.00    +0.279 C 
ATOM     15  C   UNL     1      19.415   7.689  -0.125  1.00  0.00    +0.202 C 
BRANCH  14  16
ATOM     16  O   UNL     1      20.158   5.541  -1.013  1.00  0.00    -0.366 OA
ATOM     17  H   UNL     1      19.990   5.507  -1.972  1.00  0.00    +0.213 HD
ENDBRANCH  14  16
BRANCH  15  18
ATOM     18  O   UNL     1      18.145   7.254  -0.629  1.00  0.00    -0.385 OA
ATOM     19  H   UNL     1      18.144   7.560  -1.562  1.00  0.00    +0.211 HD
ENDBRANCH  15  18
ENDBRANCH   7   8
ENDBRANCH   1   7
BRANCH   2  20
ATOM     20  O   UNL     1      22.182   8.855   4.269  1.00  0.00    -0.385 OA
ATOM     21  H   UNL     1      22.591   8.440   3.485  1.00  0.00    +0.211 HD
ENDBRANCH   2  20
BRANCH   3  22
ATOM     22  O   UNL     1      20.536  10.160   6.088  1.00  0.00    -0.387 OA
ATOM     23  H   UNL     1      21.075   9.341   6.097  1.00  0.00    +0.211 HD
ENDBRANCH   3  22
BRANCH   5  24
ATOM     24  C   UNL     1      18.251  10.658   2.140  1.00  0.00    +0.220 C 
BRANCH  24  25
ATOM     25  O   UNL     1      17.718  11.346   1.011  1.00  0.00    -0.245 OA
BRANCH  25  26
ATOM     26  S   UNL     1      16.654  10.554   0.074  1.00  0.00    +0.397 S 
ATOM     27  O   UNL     1      17.257  10.239  -1.201  1.00  0.00    -0.169 OA
ATOM     28  O   UNL     1      15.375  11.219   0.178  1.00  0.00    -0.169 OA
BRANCH  26  29
ATOM     29  O   UNL     1      16.464   9.173   0.879  1.00  0.00    -0.264 OA
ATOM     30  H   UNL     1      15.710   8.705   0.468  1.00  0.00    +0.236 HD
ENDBRANCH  26  29
ENDBRANCH  25  26
ENDBRANCH  24  25
ENDBRANCH   5  24
BRANCH   4  31
ATOM     31  O   UNL     1      18.312  10.723   4.883  1.00  0.00    -0.387 OA
ATOM     32  H   UNL     1      17.946  11.338   5.558  1.00  0.00    +0.211 HD
ENDBRANCH   4  31
TORSDOF 11
ENDMDL
MODEL 7
REMARK VINA RESULT:    -5.591     37.431     39.034
REMARK INTER + INTRA:          -9.172
REMARK INTER:                  -7.540
REMARK INTRA:                  -1.631
REMARK UNBOUND:                -0.966
REMARK SMILES O=S(=O)(O)OC[C@@H]1O[C@H](O[C@H]2[C@@H]3OC[C@H]2O[C@@H](O)[C@H]3O)[C@@H](O)[C@H](O)[C@@H]1O
REMARK SMILES IDX 9 1 21 2 23 3 25 4 7 5 8 6 10 7 11 8 14 9 15 10 13 11 16 12
REMARK SMILES IDX 12 13 17 14 19 15 18 16 20 18 22 20 24 22 6 24 5 25 2 26
REMARK SMILES IDX 1 27 3 28 4 29 26 31
REMARK H PARENT 18 17 20 19 22 21 24 23 4 30 26 32
ROOT
ATOM      1  C   UNL     1      20.227  10.984   1.942  1.00  0.00    +0.282 C 
ATOM      2  C   UNL     1      18.749  11.324   2.215  1.00  0.00    +0.202 C 
ATOM      3  C   UNL     1      18.002  11.285   0.893  1.00  0.00    +0.179 C 
ATOM      4  C   UNL     1      18.022   9.857   0.342  1.00  0.00    +0.177 C 
ATOM      5  C   UNL     1      19.356   9.123   0.619  1.00  0.00    +0.180 C 
ATOM      6  O   UNL     1      20.436  10.035   0.897  1.00  0.00    -0.341 OA
ENDROOT
BRANCH   1   7
ATOM      7  O   UNL     1      20.823  10.594   3.182  1.00  0.00    -0.341 OA
BRANCH   7   8
ATOM      8  C   UNL     1      21.883  11.456   3.584  1.00  0.00    +0.184 C 
ATOM      9  C   UNL     1      23.774  11.966   4.872  1.00  0.00    +0.195 C 
ATOM     10  C   UNL     1      23.036  10.759   4.290  1.00  0.00    +0.179 C 
ATOM     11  O   UNL     1      22.749  12.946   5.180  1.00  0.00    -0.370 OA
ATOM     12  O   UNL     1      22.540   9.856   5.294  1.00  0.00    -0.342 OA
ATOM     13  C   UNL     1      21.490  12.384   4.728  1.00  0.00    +0.184 C 
ATOM     14  C   UNL     1      21.756  10.437   6.331  1.00  0.00    +0.279 C 
ATOM     15  C   UNL     1      20.832  11.581   5.859  1.00  0.00    +0.202 C 
BRANCH  14  16
ATOM     16  O   UNL     1      22.629  10.896   7.361  1.00  0.00    -0.366 OA
ATOM     17  H   UNL     1      23.487  10.485   7.155  1.00  0.00    +0.213 HD
ENDBRANCH  14  16
BRANCH  15  18
ATOM     18  O   UNL     1      20.493  12.446   6.951  1.00  0.00    -0.385 OA
ATOM     19  H   UNL     1      19.516  12.521   6.898  1.00  0.00    +0.211 HD
ENDBRANCH  15  18
ENDBRANCH   7   8
ENDBRANCH   1   7
BRANCH   2  20
ATOM     20  O   UNL     1      18.611  12.631   2.798  1.00  0.00    -0.385 OA
ATOM     21  H   UNL     1      17.650  12.800   2.859  1.00  0.00    +0.211 HD
ENDBRANCH   2  20
BRANCH   3  22
ATOM     22  O   UNL     1      16.638  11.703   1.076  1.00  0.00    -0.387 OA
ATOM     23  H   UNL     1      16.697  12.521   1.612  1.00  0.00    +0.211 HD
ENDBRANCH   3  22
BRANCH   5  24
ATOM     24  C   UNL     1      19.276   7.994   1.662  1.00  0.00    +0.220 C 
BRANCH  24  25
ATOM     25  O   UNL     1      20.164   6.950   1.269  1.00  0.00    -0.245 OA
BRANCH  25  26
ATOM     26  S   UNL     1      21.583   6.830   2.048  1.00  0.00    +0.397 S 
ATOM     27  O   UNL     1      22.652   7.316   1.204  1.00  0.00    -0.169 OA
ATOM     28  O   UNL     1      21.639   5.539   2.694  1.00  0.00    -0.169 OA
BRANCH  26  29
ATOM     29  O   UNL     1      21.394   7.883   3.251  1.00  0.00    -0.264 OA
ATOM     30  H   UNL     1      21.934   7.559   4.000  1.00  0.00    +0.236 HD
ENDBRANCH  26  29
ENDBRANCH  25  26
ENDBRANCH  24  25
ENDBRANCH   5  24
BRANCH   4  31
ATOM     31  O   UNL     1      16.907   9.133   0.874  1.00  0.00    -0.387 OA
ATOM     32  H   UNL     1      16.116   9.556   0.469  1.00  0.00    +0.211 HD
ENDBRANCH   4  31
TORSDOF 11
ENDMDL
MODEL 8
REMARK VINA RESULT:    -5.521     30.708     32.412
REMARK INTER + INTRA:          -9.069
REMARK INTER:                  -8.024
REMARK INTRA:                  -1.046
REMARK UNBOUND:                -0.966
REMARK SMILES O=S(=O)(O)OC[C@@H]1O[C@H](O[C@H]2[C@@H]3OC[C@H]2O[C@@H](O)[C@H]3O)[C@@H](O)[C@H](O)[C@@H]1O
REMARK SMILES IDX 9 1 21 2 23 3 25 4 7 5 8 6 10 7 11 8 14 9 15 10 13 11 16 12
REMARK SMILES IDX 12 13 17 14 19 15 18 16 20 18 22 20 24 22 6 24 5 25 2 26
REMARK SMILES IDX 1 27 3 28 4 29 26 31
REMARK H PARENT 18 17 20 19 22 21 24 23 4 30 26 32
ROOT
ATOM      1  C   UNL     1      14.243  -0.334  -7.515  1.00  0.00    +0.282 C 
ATOM      2  C   UNL     1      13.659   0.234  -6.207  1.00  0.00    +0.202 C 
ATOM      3  C   UNL     1      14.600   1.312  -5.697  1.00  0.00    +0.179 C 
ATOM      4  C   UNL     1      14.631   2.471  -6.697  1.00  0.00    +0.177 C 
ATOM      5  C   UNL     1      14.551   2.000  -8.169  1.00  0.00    +0.180 C 
ATOM      6  O   UNL     1      14.930   0.619  -8.324  1.00  0.00    -0.341 OA
ENDROOT
BRANCH   1   7
ATOM      7  O   UNL     1      13.188  -1.004  -8.211  1.00  0.00    -0.341 OA
BRANCH   7   8
ATOM      8  C   UNL     1      13.597  -1.528  -9.470  1.00  0.00    +0.184 C 
ATOM      9  C   UNL     1      13.289  -1.913 -11.761  1.00  0.00    +0.195 C 
ATOM     10  C   UNL     1      12.896  -0.915 -10.672  1.00  0.00    +0.179 C 
ATOM     11  O   UNL     1      13.381  -3.202 -11.102  1.00  0.00    -0.370 OA
ATOM     12  O   UNL     1      11.476  -0.849 -10.445  1.00  0.00    -0.342 OA
ATOM     13  C   UNL     1      13.139  -2.965  -9.691  1.00  0.00    +0.184 C 
ATOM     14  C   UNL     1      10.817  -2.089 -10.214  1.00  0.00    +0.279 C 
ATOM     15  C   UNL     1      11.641  -3.096  -9.382  1.00  0.00    +0.202 C 
BRANCH  14  16
ATOM     16  O   UNL     1      10.459  -2.658 -11.471  1.00  0.00    -0.366 OA
ATOM     17  H   UNL     1      11.309  -2.883 -11.888  1.00  0.00    +0.213 HD
ENDBRANCH  14  16
BRANCH  15  18
ATOM     18  O   UNL     1      11.200  -4.439  -9.623  1.00  0.00    -0.385 OA
ATOM     19  H   UNL     1      12.023  -4.922  -9.848  1.00  0.00    +0.211 HD
ENDBRANCH  15  18
ENDBRANCH   7   8
ENDBRANCH   1   7
BRANCH   2  20
ATOM     20  O   UNL     1      13.523  -0.788  -5.205  1.00  0.00    -0.385 OA
ATOM     21  H   UNL     1      14.392  -1.232  -5.152  1.00  0.00    +0.211 HD
ENDBRANCH   2  20
BRANCH   3  22
ATOM     22  O   UNL     1      14.158   1.801  -4.420  1.00  0.00    -0.387 OA
ATOM     23  H   UNL     1      13.893   2.730  -4.585  1.00  0.00    +0.211 HD
ENDBRANCH   3  22
BRANCH   5  24
ATOM     24  C   UNL     1      13.224   2.314  -8.883  1.00  0.00    +0.220 C 
BRANCH  24  25
ATOM     25  O   UNL     1      13.494   2.530 -10.266  1.00  0.00    -0.245 OA
BRANCH  25  26
ATOM     26  S   UNL     1      13.587   4.065 -10.788  1.00  0.00    +0.397 S 
ATOM     27  O   UNL     1      12.657   4.274 -11.874  1.00  0.00    -0.169 OA
ATOM     28  O   UNL     1      14.983   4.425 -10.889  1.00  0.00    -0.169 OA
BRANCH  26  29
ATOM     29  O   UNL     1      13.044   4.884  -9.513  1.00  0.00    -0.264 OA
ATOM     30  H   UNL     1      13.596   4.622  -8.749  1.00  0.00    +0.236 HD
ENDBRANCH  26  29
ENDBRANCH  25  26
ENDBRANCH  24  25
ENDBRANCH   5  24
BRANCH   4  31
ATOM     31  O   UNL     1      13.579   3.390  -6.383  1.00  0.00    -0.387 OA
ATOM     32  H   UNL     1      13.879   4.251  -6.751  1.00  0.00    +0.211 HD
ENDBRANCH   4  31
TORSDOF 11
ENDMDL
MODEL 9
REMARK VINA RESULT:    -5.482     34.303     36.691
REMARK INTER + INTRA:          -9.012
REMARK INTER:                  -7.283
REMARK INTRA:                  -1.729
REMARK UNBOUND:                -0.966
REMARK SMILES O=S(=O)(O)OC[C@@H]1O[C@H](O[C@H]2[C@@H]3OC[C@H]2O[C@@H](O)[C@H]3O)[C@@H](O)[C@H](O)[C@@H]1O
REMARK SMILES IDX 9 1 21 2 23 3 25 4 7 5 8 6 10 7 11 8 14 9 15 10 13 11 16 12
REMARK SMILES IDX 12 13 17 14 19 15 18 16 20 18 22 20 24 22 6 24 5 25 2 26
REMARK SMILES IDX 1 27 3 28 4 29 26 31
REMARK H PARENT 18 17 20 19 22 21 24 23 4 30 26 32
ROOT
ATOM      1  C   UNL     1      15.964  -3.829  10.348  1.00  0.00    +0.282 C 
ATOM      2  C   UNL     1      15.350  -2.482   9.919  1.00  0.00    +0.202 C 
ATOM      3  C   UNL     1      14.936  -1.730  11.173  1.00  0.00    +0.179 C 
ATOM      4  C   UNL     1      16.182  -1.395  11.997  1.00  0.00    +0.177 C 
ATOM      5  C   UNL     1      17.250  -2.514  11.957  1.00  0.00    +0.180 C 
ATOM      6  O   UNL     1      16.696  -3.787  11.571  1.00  0.00    -0.341 OA
ENDROOT
BRANCH   1   7
ATOM      7  O   UNL     1      16.732  -4.328   9.250  1.00  0.00    -0.341 OA
BRANCH   7   8
ATOM      8  C   UNL     1      16.365  -5.651   8.871  1.00  0.00    +0.184 C 
ATOM      9  C   UNL     1      16.624  -7.594   7.586  1.00  0.00    +0.195 C 
ATOM     10  C   UNL     1      17.445  -6.423   8.129  1.00  0.00    +0.179 C 
ATOM     11  O   UNL     1      15.299  -7.063   7.326  1.00  0.00    -0.370 OA
ATOM     12  O   UNL     1      18.025  -5.607   7.095  1.00  0.00    -0.342 OA
ATOM     13  C   UNL     1      15.314  -5.680   7.768  1.00  0.00    +0.184 C 
ATOM     14  C   UNL     1      17.135  -5.138   6.088  1.00  0.00    +0.279 C 
ATOM     15  C   UNL     1      15.732  -4.760   6.613  1.00  0.00    +0.202 C 
BRANCH  14  16
ATOM     16  O   UNL     1      17.034  -6.129   5.069  1.00  0.00    -0.366 OA
ATOM     17  H   UNL     1      16.101  -6.100   4.793  1.00  0.00    +0.213 HD
ENDBRANCH  14  16
BRANCH  15  18
ATOM     18  O   UNL     1      14.762  -4.812   5.559  1.00  0.00    -0.385 OA
ATOM     19  H   UNL     1      14.411  -3.897   5.515  1.00  0.00    +0.211 HD
ENDBRANCH  15  18
ENDBRANCH   7   8
ENDBRANCH   1   7
BRANCH   2  20
ATOM     20  O   UNL     1      14.198  -2.673   9.080  1.00  0.00    -0.385 OA
ATOM     21  H   UNL     1      13.645  -1.875   9.196  1.00  0.00    +0.211 HD
ENDBRANCH   2  20
BRANCH   3  22
ATOM     22  O   UNL     1      14.257  -0.511  10.825  1.00  0.00    -0.387 OA
ATOM     23  H   UNL     1      14.012  -0.107  11.684  1.00  0.00    +0.211 HD
ENDBRANCH   3  22
BRANCH   5  24
ATOM     24  C   UNL     1      18.520  -2.176  11.156  1.00  0.00    +0.220 C 
BRANCH  24  25
ATOM     25  O   UNL     1      19.339  -3.341  11.092  1.00  0.00    -0.245 OA
BRANCH  25  26
ATOM     26  S   UNL     1      20.167  -3.611   9.722  1.00  0.00    +0.397 S 
ATOM     27  O   UNL     1      20.402  -5.027   9.558  1.00  0.00    -0.169 OA
ATOM     28  O   UNL     1      21.232  -2.638   9.636  1.00  0.00    -0.169 OA
BRANCH  26  29
ATOM     29  O   UNL     1      19.107  -3.158   8.597  1.00  0.00    -0.264 OA
ATOM     30  H   UNL     1      19.038  -2.183   8.647  1.00  0.00    +0.236 HD
ENDBRANCH  26  29
ENDBRANCH  25  26
ENDBRANCH  24  25
ENDBRANCH   5  24
BRANCH   4  31
ATOM     31  O   UNL     1      16.718  -0.144  11.550  1.00  0.00    -0.387 OA
ATOM     32  H   UNL     1      17.544  -0.025  12.070  1.00  0.00    +0.211 HD
ENDBRANCH   4  31
TORSDOF 11
ENDMDL
