MODEL 1
REMARK VINA RESULT:    -5.961      0.000      0.000
REMARK INTER + INTRA:         -10.491
REMARK INTER:                  -8.749
REMARK INTRA:                  -1.742
REMARK UNBOUND:                -1.742
REMARK SMILES O=C(O)[C@@H]1O[C@@H](O[C@H]2[C@H](O)[C@@H](O)[C@@H](O)O[C@H]2C(=O)O)[C@H](O)[C@@H](O)[C@@H]1O
REMARK SMILES IDX 7 1 6 2 22 3 24 4 20 5 4 6 5 7 23 8 25 10 21 12 2 14 1 15
REMARK SMILES IDX 3 16 8 18 9 19 16 20 11 21 15 22 13 23 10 24 17 26 18 27
REMARK SMILES IDX 19 28 12 30 14 32
REMARK H PARENT 23 9 25 11 21 13 3 17 10 25 19 29 12 31 14 33
ROOT
ATOM      1  O   UNL     1     -17.781  -0.104   0.278  1.00  0.00    -0.340 OA
ENDROOT
BRANCH   1   2
ATOM      2  C   UNL     1     -18.322   0.263   1.546  1.00  0.00    +0.283 C 
ATOM      3  C   UNL     1     -18.209  -0.732   3.864  1.00  0.00    +0.180 C 
ATOM      4  C   UNL     1     -16.799  -0.150   4.066  1.00  0.00    +0.186 C 
ATOM      5  C   UNL     1     -18.495  -1.029   2.393  1.00  0.00    +0.202 C 
ATOM      6  C   UNL     1     -16.347   0.614   2.813  1.00  0.00    +0.262 C 
ATOM      7  O   UNL     1     -17.491   1.223   2.197  1.00  0.00    -0.332 OA
BRANCH   3   8
ATOM      8  O   UNL     1     -18.348  -1.919   4.659  1.00  0.00    -0.387 OA
ATOM      9  H   UNL     1     -19.265  -1.915   4.999  1.00  0.00    +0.211 HD
ENDBRANCH   3   8
BRANCH   4  10
ATOM     10  O   UNL     1     -16.871   0.699   5.222  1.00  0.00    -0.387 OA
ATOM     11  H   UNL     1     -16.672   1.602   4.905  1.00  0.00    +0.211 HD
ENDBRANCH   4  10
BRANCH   5  12
ATOM     12  O   UNL     1     -19.818  -1.586   2.278  1.00  0.00    -0.385 OA
ATOM     13  H   UNL     1     -19.795  -2.302   1.617  1.00  0.00    +0.211 HD
ENDBRANCH   5  12
BRANCH   6  14
ATOM     14  C   UNL     1     -15.235   1.607   3.131  1.00  0.00    +0.335 C 
ATOM     15  O   UNL     1     -15.252   2.807   2.903  1.00  0.00    -0.249 OA
BRANCH  14  16
ATOM     16  O   UNL     1     -14.184   1.053   3.777  1.00  0.00    -0.479 OA
ATOM     17  H   UNL     1     -14.510   0.932   4.693  1.00  0.00    +0.296 HD
ENDBRANCH  14  16
ENDBRANCH   6  14
ENDBRANCH   1   2
BRANCH   1  18
ATOM     18  C   UNL     1     -17.841   0.905  -0.740  1.00  0.00    +0.193 C 
ATOM     19  C   UNL     1     -16.514   1.657  -0.989  1.00  0.00    +0.180 C 
ATOM     20  C   UNL     1     -18.335   0.278  -2.053  1.00  0.00    +0.262 C 
ATOM     21  C   UNL     1     -16.468   2.288  -2.388  1.00  0.00    +0.201 C 
ATOM     22  O   UNL     1     -18.664   1.281  -3.020  1.00  0.00    -0.332 OA
ATOM     23  C   UNL     1     -17.883   2.468  -2.968  1.00  0.00    +0.279 C 
BRANCH  19  24
ATOM     24  O   UNL     1     -16.399   2.713  -0.021  1.00  0.00    -0.387 OA
ATOM     25  H   UNL     1     -15.488   3.069  -0.127  1.00  0.00    +0.211 HD
ENDBRANCH  19  24
BRANCH  20  26
ATOM     26  C   UNL     1     -17.375  -0.799  -2.587  1.00  0.00    +0.335 C 
ATOM     27  O   UNL     1     -16.950  -0.914  -3.727  1.00  0.00    -0.249 OA
BRANCH  26  28
ATOM     28  O   UNL     1     -16.958  -1.656  -1.628  1.00  0.00    -0.479 OA
ATOM     29  H   UNL     1     -16.396  -1.101  -1.048  1.00  0.00    +0.296 HD
ENDBRANCH  26  28
ENDBRANCH  20  26
BRANCH  21  30
ATOM     30  O   UNL     1     -15.705   1.447  -3.274  1.00  0.00    -0.385 OA
ATOM     31  H   UNL     1     -15.262   2.071  -3.888  1.00  0.00    +0.211 HD
ENDBRANCH  21  30
BRANCH  23  32
ATOM     32  O   UNL     1     -17.747   2.923  -4.309  1.00  0.00    -0.366 OA
ATOM     33  H   UNL     1     -18.198   2.244  -4.841  1.00  0.00    +0.213 HD
ENDBRANCH  23  32
ENDBRANCH   1  18
TORSDOF 12
ENDMDL
MODEL 2
REMARK VINA RESULT:    -5.772      2.650      5.233
REMARK INTER + INTRA:         -10.214
REMARK INTER:                  -8.726
REMARK INTRA:                  -1.488
REMARK UNBOUND:                -1.742
REMARK SMILES O=C(O)[C@@H]1O[C@@H](O[C@H]2[C@H](O)[C@@H](O)[C@@H](O)O[C@H]2C(=O)O)[C@H](O)[C@@H](O)[C@@H]1O
REMARK SMILES IDX 7 1 6 2 22 3 24 4 20 5 4 6 5 7 23 8 25 10 21 12 2 14 1 15
REMARK SMILES IDX 3 16 8 18 9 19 16 20 11 21 15 22 13 23 10 24 17 26 18 27
REMARK SMILES IDX 19 28 12 30 14 32
REMARK H PARENT 23 9 25 11 21 13 3 17 10 25 19 29 12 31 14 33
ROOT
ATOM      1  O   UNL     1     -16.855   0.472  -0.662  1.00  0.00    -0.340 OA
ENDROOT
BRANCH   1   2
ATOM      2  C   UNL     1     -16.295   1.746  -0.970  1.00  0.00    +0.283 C 
ATOM      3  C   UNL     1     -17.065   3.726  -2.335  1.00  0.00    +0.180 C 
ATOM      4  C   UNL     1     -17.990   4.179  -1.193  1.00  0.00    +0.186 C 
ATOM      5  C   UNL     1     -16.866   2.211  -2.340  1.00  0.00    +0.202 C 
ATOM      6  C   UNL     1     -17.898   3.207  -0.008  1.00  0.00    +0.262 C 
ATOM      7  O   UNL     1     -16.563   2.687   0.070  1.00  0.00    -0.332 OA
BRANCH   3   8
ATOM      8  O   UNL     1     -17.608   4.171  -3.587  1.00  0.00    -0.387 OA
ATOM      9  H   UNL     1     -16.930   4.750  -3.990  1.00  0.00    +0.211 HD
ENDBRANCH   3   8
BRANCH   4  10
ATOM     10  O   UNL     1     -17.577   5.507  -0.837  1.00  0.00    -0.387 OA
ATOM     11  H   UNL     1     -16.735   5.406  -0.352  1.00  0.00    +0.211 HD
ENDBRANCH   4  10
BRANCH   5  12
ATOM     12  O   UNL     1     -16.008   1.856  -3.440  1.00  0.00    -0.385 OA
ATOM     13  H   UNL     1     -15.434   2.618  -3.642  1.00  0.00    +0.211 HD
ENDBRANCH   5  12
BRANCH   6  14
ATOM     14  C   UNL     1     -18.367   3.856   1.289  1.00  0.00    +0.335 C 
ATOM     15  O   UNL     1     -17.694   4.556   2.030  1.00  0.00    -0.249 OA
BRANCH  14  16
ATOM     16  O   UNL     1     -19.676   3.646   1.557  1.00  0.00    -0.479 OA
ATOM     17  H   UNL     1     -19.703   2.718   1.874  1.00  0.00    +0.296 HD
ENDBRANCH  14  16
ENDBRANCH   6  14
ENDBRANCH   1   2
BRANCH   1  18
ATOM     18  C   UNL     1     -17.782  -0.049  -1.625  1.00  0.00    +0.193 C 
ATOM     19  C   UNL     1     -17.404  -1.429  -2.211  1.00  0.00    +0.180 C 
ATOM     20  C   UNL     1     -19.184  -0.119  -1.000  1.00  0.00    +0.262 C 
ATOM     21  C   UNL     1     -18.628  -2.169  -2.769  1.00  0.00    +0.201 C 
ATOM     22  O   UNL     1     -20.186  -0.379  -1.990  1.00  0.00    -0.332 OA
ATOM     23  C   UNL     1     -19.777  -1.193  -3.082  1.00  0.00    +0.279 C 
BRANCH  19  24
ATOM     24  O   UNL     1     -16.475  -1.229  -3.289  1.00  0.00    -0.387 OA
ATOM     25  H   UNL     1     -16.949  -1.515  -4.102  1.00  0.00    +0.211 HD
ENDBRANCH  19  24
BRANCH  20  26
ATOM     26  C   UNL     1     -19.245  -1.079   0.202  1.00  0.00    +0.335 C 
ATOM     27  O   UNL     1     -20.073  -1.952   0.412  1.00  0.00    -0.249 OA
BRANCH  26  28
ATOM     28  O   UNL     1     -18.213  -0.914   1.059  1.00  0.00    -0.479 OA
ATOM     29  H   UNL     1     -17.420  -1.038   0.497  1.00  0.00    +0.296 HD
ENDBRANCH  26  28
ENDBRANCH  20  26
BRANCH  21  30
ATOM     30  O   UNL     1     -19.089  -3.139  -1.808  1.00  0.00    -0.385 OA
ATOM     31  H   UNL     1     -18.368  -3.802  -1.761  1.00  0.00    +0.211 HD
ENDBRANCH  21  30
BRANCH  23  32
ATOM     32  O   UNL     1     -20.911  -1.966  -3.458  1.00  0.00    -0.366 OA
ATOM     33  H   UNL     1     -20.542  -2.693  -3.988  1.00  0.00    +0.213 HD
ENDBRANCH  23  32
ENDBRANCH   1  18
TORSDOF 12
ENDMDL
MODEL 3
REMARK VINA RESULT:    -5.518      2.128      3.946
REMARK INTER + INTRA:          -9.841
REMARK INTER:                  -8.682
REMARK INTRA:                  -1.159
REMARK UNBOUND:                -1.742
REMARK SMILES O=C(O)[C@@H]1O[C@@H](O[C@H]2[C@H](O)[C@@H](O)[C@@H](O)O[C@H]2C(=O)O)[C@H](O)[C@@H](O)[C@@H]1O
REMARK SMILES IDX 7 1 6 2 22 3 24 4 20 5 4 6 5 7 23 8 25 10 21 12 2 14 1 15
REMARK SMILES IDX 3 16 8 18 9 19 16 20 11 21 15 22 13 23 10 24 17 26 18 27
REMARK SMILES IDX 19 28 12 30 14 32
REMARK H PARENT 23 9 25 11 21 13 3 17 10 25 19 29 12 31 14 33
ROOT
ATOM      1  O   UNL     1     -18.077   0.159  -0.070  1.00  0.00    -0.340 OA
ENDROOT
BRANCH   1   2
ATOM      2  C   UNL     1     -17.216   1.295  -0.053  1.00  0.00    +0.283 C 
ATOM      3  C   UNL     1     -17.297   3.551   1.077  1.00  0.00    +0.180 C 
ATOM      4  C   UNL     1     -16.837   2.924   2.405  1.00  0.00    +0.186 C 
ATOM      5  C   UNL     1     -18.080   2.558   0.221  1.00  0.00    +0.202 C 
ATOM      6  C   UNL     1     -16.638   1.410   2.245  1.00  0.00    +0.262 C 
ATOM      7  O   UNL     1     -16.178   1.135   0.914  1.00  0.00    -0.332 OA
BRANCH   3   8
ATOM      8  O   UNL     1     -18.088   4.716   1.355  1.00  0.00    -0.387 OA
ATOM      9  H   UNL     1     -17.939   5.332   0.610  1.00  0.00    +0.211 HD
ENDBRANCH   3   8
BRANCH   4  10
ATOM     10  O   UNL     1     -15.621   3.595   2.771  1.00  0.00    -0.387 OA
ATOM     11  H   UNL     1     -15.846   4.166   3.530  1.00  0.00    +0.211 HD
ENDBRANCH   4  10
BRANCH   5  12
ATOM     12  O   UNL     1     -18.495   3.212  -0.993  1.00  0.00    -0.385 OA
ATOM     13  H   UNL     1     -18.508   4.174  -0.835  1.00  0.00    +0.211 HD
ENDBRANCH   5  12
BRANCH   6  14
ATOM     14  C   UNL     1     -15.723   0.846   3.326  1.00  0.00    +0.335 C 
ATOM     15  O   UNL     1     -16.059   0.115   4.246  1.00  0.00    -0.249 OA
BRANCH  14  16
ATOM     16  O   UNL     1     -14.423   1.177   3.162  1.00  0.00    -0.479 OA
ATOM     17  H   UNL     1     -14.453   1.948   2.558  1.00  0.00    +0.296 HD
ENDBRANCH  14  16
ENDBRANCH   6  14
ENDBRANCH   1   2
BRANCH   1  18
ATOM     18  C   UNL     1     -18.552  -0.243  -1.362  1.00  0.00    +0.193 C 
ATOM     19  C   UNL     1     -17.651  -1.259  -2.099  1.00  0.00    +0.180 C 
ATOM     20  C   UNL     1     -19.973  -0.813  -1.230  1.00  0.00    +0.262 C 
ATOM     21  C   UNL     1     -18.430  -2.053  -3.159  1.00  0.00    +0.201 C 
ATOM     22  O   UNL     1     -20.591  -0.981  -2.511  1.00  0.00    -0.332 OA
ATOM     23  C   UNL     1     -19.714  -1.313  -3.579  1.00  0.00    +0.279 C 
BRANCH  19  24
ATOM     24  O   UNL     1     -16.601  -0.540  -2.766  1.00  0.00    -0.387 OA
ATOM     25  H   UNL     1     -16.802   0.413  -2.624  1.00  0.00    +0.211 HD
ENDBRANCH  19  24
BRANCH  20  26
ATOM     26  C   UNL     1     -20.021  -2.077  -0.355  1.00  0.00    +0.335 C 
ATOM     27  O   UNL     1     -20.569  -3.138  -0.613  1.00  0.00    -0.249 OA
BRANCH  26  28
ATOM     28  O   UNL     1     -19.321  -1.948   0.795  1.00  0.00    -0.479 OA
ATOM     29  H   UNL     1     -19.522  -1.036   1.090  1.00  0.00    +0.296 HD
ENDBRANCH  26  28
ENDBRANCH  20  26
BRANCH  21  30
ATOM     30  O   UNL     1     -18.788  -3.345  -2.630  1.00  0.00    -0.385 OA
ATOM     31  H   UNL     1     -17.937  -3.741  -2.347  1.00  0.00    +0.211 HD
ENDBRANCH  21  30
BRANCH  23  32
ATOM     32  O   UNL     1     -20.442  -2.173  -4.449  1.00  0.00    -0.366 OA
ATOM     33  H   UNL     1     -20.520  -3.006  -3.955  1.00  0.00    +0.213 HD
ENDBRANCH  23  32
ENDBRANCH   1  18
TORSDOF 12
ENDMDL
MODEL 4
REMARK VINA RESULT:    -5.320     18.831     21.783
REMARK INTER + INTRA:          -9.551
REMARK INTER:                  -8.027
REMARK INTRA:                  -1.524
REMARK UNBOUND:                -1.742
REMARK SMILES O=C(O)[C@@H]1O[C@@H](O[C@H]2[C@H](O)[C@@H](O)[C@@H](O)O[C@H]2C(=O)O)[C@H](O)[C@@H](O)[C@@H]1O
REMARK SMILES IDX 7 1 6 2 22 3 24 4 20 5 4 6 5 7 23 8 25 10 21 12 2 14 1 15
REMARK SMILES IDX 3 16 8 18 9 19 16 20 11 21 15 22 13 23 10 24 17 26 18 27
REMARK SMILES IDX 19 28 12 30 14 32
REMARK H PARENT 23 9 25 11 21 13 3 17 10 25 19 29 12 31 14 33
ROOT
ATOM      1  O   UNL     1      -2.357  -0.596  16.187  1.00  0.00    -0.340 OA
ENDROOT
BRANCH   1   2
ATOM      2  C   UNL     1      -1.875   0.020  17.379  1.00  0.00    +0.283 C 
ATOM      3  C   UNL     1      -0.251   1.892  17.862  1.00  0.00    +0.180 C 
ATOM      4  C   UNL     1      -1.321   2.939  17.507  1.00  0.00    +0.186 C 
ATOM      5  C   UNL     1      -0.455   0.587  17.095  1.00  0.00    +0.202 C 
ATOM      6  C   UNL     1      -2.629   2.251  17.089  1.00  0.00    +0.262 C 
ATOM      7  O   UNL     1      -2.776   1.032  17.831  1.00  0.00    -0.332 OA
BRANCH   3   8
ATOM      8  O   UNL     1       1.050   2.439  17.597  1.00  0.00    -0.387 OA
ATOM      9  H   UNL     1       0.902   3.345  17.258  1.00  0.00    +0.211 HD
ENDBRANCH   3   8
BRANCH   4  10
ATOM     10  O   UNL     1      -1.489   3.760  18.673  1.00  0.00    -0.387 OA
ATOM     11  H   UNL     1      -1.047   3.284  19.403  1.00  0.00    +0.211 HD
ENDBRANCH   4  10
BRANCH   5  12
ATOM     12  O   UNL     1       0.587  -0.337  17.459  1.00  0.00    -0.385 OA
ATOM     13  H   UNL     1       1.378  -0.134  16.928  1.00  0.00    +0.211 HD
ENDBRANCH   5  12
BRANCH   6  14
ATOM     14  C   UNL     1      -3.824   3.187  17.227  1.00  0.00    +0.335 C 
ATOM     15  O   UNL     1      -4.964   2.862  17.526  1.00  0.00    -0.249 OA
BRANCH  14  16
ATOM     16  O   UNL     1      -3.516   4.490  17.045  1.00  0.00    -0.479 OA
ATOM     17  H   UNL     1      -4.125   4.777  16.333  1.00  0.00    +0.296 HD
ENDBRANCH  14  16
ENDBRANCH   6  14
ENDBRANCH   1   2
BRANCH   1  18
ATOM     18  C   UNL     1      -3.479  -1.474  16.351  1.00  0.00    +0.193 C 
ATOM     19  C   UNL     1      -4.838  -0.879  15.918  1.00  0.00    +0.180 C 
ATOM     20  C   UNL     1      -3.220  -2.782  15.587  1.00  0.00    +0.262 C 
ATOM     21  C   UNL     1      -5.864  -1.974  15.587  1.00  0.00    +0.201 C 
ATOM     22  O   UNL     1      -4.181  -3.787  15.930  1.00  0.00    -0.332 OA
ATOM     23  C   UNL     1      -5.483  -3.313  16.246  1.00  0.00    +0.279 C 
BRANCH  19  24
ATOM     24  O   UNL     1      -5.360  -0.094  17.003  1.00  0.00    -0.387 OA
ATOM     25  H   UNL     1      -6.174   0.333  16.652  1.00  0.00    +0.211 HD
ENDBRANCH  19  24
BRANCH  20  26
ATOM     26  C   UNL     1      -3.080  -2.560  14.071  1.00  0.00    +0.335 C 
ATOM     27  O   UNL     1      -3.191  -3.395  13.185  1.00  0.00    -0.249 OA
BRANCH  26  28
ATOM     28  O   UNL     1      -2.853  -1.267  13.747  1.00  0.00    -0.479 OA
ATOM     29  H   UNL     1      -2.329  -1.322  12.921  1.00  0.00    +0.296 HD
ENDBRANCH  26  28
ENDBRANCH  20  26
BRANCH  21  30
ATOM     30  O   UNL     1      -5.932  -2.159  14.160  1.00  0.00    -0.385 OA
ATOM     31  H   UNL     1      -5.089  -1.790  13.822  1.00  0.00    +0.211 HD
ENDBRANCH  21  30
BRANCH  23  32
ATOM     32  O   UNL     1      -6.398  -4.299  15.780  1.00  0.00    -0.366 OA
ATOM     33  H   UNL     1      -7.008  -4.433  16.525  1.00  0.00    +0.213 HD
ENDBRANCH  23  32
ENDBRANCH   1  18
TORSDOF 12
ENDMDL
MODEL 5
REMARK VINA RESULT:    -5.284     20.972     24.629
REMARK INTER + INTRA:          -9.497
REMARK INTER:                  -8.110
REMARK INTRA:                  -1.387
REMARK UNBOUND:                -1.742
REMARK SMILES O=C(O)[C@@H]1O[C@@H](O[C@H]2[C@H](O)[C@@H](O)[C@@H](O)O[C@H]2C(=O)O)[C@H](O)[C@@H](O)[C@@H]1O
REMARK SMILES IDX 7 1 6 2 22 3 24 4 20 5 4 6 5 7 23 8 25 10 21 12 2 14 1 15
REMARK SMILES IDX 3 16 8 18 9 19 16 20 11 21 15 22 13 23 10 24 17 26 18 27
REMARK SMILES IDX 19 28 12 30 14 32
REMARK H PARENT 23 9 25 11 21 13 3 17 10 25 19 29 12 31 14 33
ROOT
ATOM      1  O   UNL     1      -0.436   0.079  17.575  1.00  0.00    -0.340 OA
ENDROOT
BRANCH   1   2
ATOM      2  C   UNL     1       0.386  -0.346  18.660  1.00  0.00    +0.283 C 
ATOM      3  C   UNL     1       1.939  -2.302  19.031  1.00  0.00    +0.180 C 
ATOM      4  C   UNL     1       3.036  -1.616  18.198  1.00  0.00    +0.186 C 
ATOM      5  C   UNL     1       0.540  -1.892  18.578  1.00  0.00    +0.202 C 
ATOM      6  C   UNL     1       2.542  -0.259  17.673  1.00  0.00    +0.262 C 
ATOM      7  O   UNL     1       1.649   0.320  18.635  1.00  0.00    -0.332 OA
BRANCH   3   8
ATOM      8  O   UNL     1       2.104  -3.726  18.945  1.00  0.00    -0.387 OA
ATOM      9  H   UNL     1       1.577  -4.016  18.174  1.00  0.00    +0.211 HD
ENDBRANCH   3   8
BRANCH   4  10
ATOM     10  O   UNL     1       4.176  -1.480  19.061  1.00  0.00    -0.387 OA
ATOM     11  H   UNL     1       4.938  -1.826  18.556  1.00  0.00    +0.211 HD
ENDBRANCH   4  10
BRANCH   5  12
ATOM     12  O   UNL     1      -0.434  -2.582  19.383  1.00  0.00    -0.385 OA
ATOM     13  H   UNL     1      -0.858  -1.934  19.976  1.00  0.00    +0.211 HD
ENDBRANCH   5  12
BRANCH   6  14
ATOM     14  C   UNL     1       3.704   0.656  17.304  1.00  0.00    +0.335 C 
ATOM     15  O   UNL     1       4.888   0.353  17.299  1.00  0.00    -0.249 OA
BRANCH  14  16
ATOM     16  O   UNL     1       3.316   1.886  16.898  1.00  0.00    -0.479 OA
ATOM     17  H   UNL     1       4.127   2.429  16.992  1.00  0.00    +0.296 HD
ENDBRANCH  14  16
ENDBRANCH   6  14
ENDBRANCH   1   2
BRANCH   1  18
ATOM     18  C   UNL     1      -1.127   1.321  17.769  1.00  0.00    +0.193 C 
ATOM     19  C   UNL     1      -0.343   2.577  17.325  1.00  0.00    +0.180 C 
ATOM     20  C   UNL     1      -2.480   1.272  17.042  1.00  0.00    +0.262 C 
ATOM     21  C   UNL     1      -1.277   3.761  17.031  1.00  0.00    +0.201 C 
ATOM     22  O   UNL     1      -3.316   2.372  17.418  1.00  0.00    -0.332 OA
ATOM     23  C   UNL     1      -2.640   3.584  17.726  1.00  0.00    +0.279 C 
BRANCH  19  24
ATOM     24  O   UNL     1       0.542   2.963  18.389  1.00  0.00    -0.387 OA
ATOM     25  H   UNL     1       1.357   3.292  17.947  1.00  0.00    +0.211 HD
ENDBRANCH  19  24
BRANCH  20  26
ATOM     26  C   UNL     1      -2.325   1.112  15.520  1.00  0.00    +0.335 C 
ATOM     27  O   UNL     1      -2.858   1.779  14.645  1.00  0.00    -0.249 OA
BRANCH  26  28
ATOM     28  O   UNL     1      -1.452   0.137  15.179  1.00  0.00    -0.479 OA
ATOM     29  H   UNL     1      -1.962  -0.428  14.563  1.00  0.00    +0.296 HD
ENDBRANCH  26  28
ENDBRANCH  20  26
BRANCH  21  30
ATOM     30  O   UNL     1      -1.489   3.869  15.609  1.00  0.00    -0.385 OA
ATOM     31  H   UNL     1      -1.598   2.943  15.305  1.00  0.00    +0.211 HD
ENDBRANCH  21  30
BRANCH  23  32
ATOM     32  O   UNL     1      -3.487   4.642  17.292  1.00  0.00    -0.366 OA
ATOM     33  H   UNL     1      -3.503   4.556  16.324  1.00  0.00    +0.213 HD
ENDBRANCH  23  32
ENDBRANCH   1  18
TORSDOF 12
ENDMDL
MODEL 6
REMARK VINA RESULT:    -5.270     36.248     39.221
REMARK INTER + INTRA:          -9.477
REMARK INTER:                  -7.736
REMARK INTRA:                  -1.741
REMARK UNBOUND:                -1.742
REMARK SMILES O=C(O)[C@@H]1O[C@@H](O[C@H]2[C@H](O)[C@@H](O)[C@@H](O)O[C@H]2C(=O)O)[C@H](O)[C@@H](O)[C@@H]1O
REMARK SMILES IDX 7 1 6 2 22 3 24 4 20 5 4 6 5 7 23 8 25 10 21 12 2 14 1 15
REMARK SMILES IDX 3 16 8 18 9 19 16 20 11 21 15 22 13 23 10 24 17 26 18 27
REMARK SMILES IDX 19 28 12 30 14 32
REMARK H PARENT 23 9 25 11 21 13 3 17 10 25 19 29 12 31 14 33
ROOT
ATOM      1  O   UNL     1      20.476  10.136   3.858  1.00  0.00    -0.340 OA
ENDROOT
BRANCH   1   2
ATOM      2  C   UNL     1      20.630   9.492   2.595  1.00  0.00    +0.283 C 
ATOM      3  C   UNL     1      19.557   7.487   1.498  1.00  0.00    +0.180 C 
ATOM      4  C   UNL     1      18.308   8.317   1.156  1.00  0.00    +0.186 C 
ATOM      5  C   UNL     1      20.248   7.994   2.762  1.00  0.00    +0.202 C 
ATOM      6  C   UNL     1      18.461   9.756   1.670  1.00  0.00    +0.262 C 
ATOM      7  O   UNL     1      19.841  10.138   1.594  1.00  0.00    -0.332 OA
BRANCH   3   8
ATOM      8  O   UNL     1      19.183   6.108   1.642  1.00  0.00    -0.387 OA
ATOM      9  H   UNL     1      19.434   5.850   2.552  1.00  0.00    +0.211 HD
ENDBRANCH   3   8
BRANCH   4  10
ATOM     10  O   UNL     1      18.163   8.264  -0.272  1.00  0.00    -0.387 OA
ATOM     11  H   UNL     1      17.626   7.470  -0.459  1.00  0.00    +0.211 HD
ENDBRANCH   4  10
BRANCH   5  12
ATOM     12  O   UNL     1      21.394   7.165   3.034  1.00  0.00    -0.385 OA
ATOM     13  H   UNL     1      21.680   7.327   3.952  1.00  0.00    +0.211 HD
ENDBRANCH   5  12
BRANCH   6  14
ATOM     14  C   UNL     1      17.530  10.716   0.937  1.00  0.00    +0.335 C 
ATOM     15  O   UNL     1      17.799  11.856   0.588  1.00  0.00    -0.249 OA
BRANCH  14  16
ATOM     16  O   UNL     1      16.331  10.174   0.625  1.00  0.00    -0.479 OA
ATOM     17  H   UNL     1      15.879  10.884   0.122  1.00  0.00    +0.296 HD
ENDBRANCH  14  16
ENDBRANCH   6  14
ENDBRANCH   1   2
BRANCH   1  18
ATOM     18  C   UNL     1      20.992  11.472   3.942  1.00  0.00    +0.193 C 
ATOM     19  C   UNL     1      19.942  12.554   4.281  1.00  0.00    +0.180 C 
ATOM     20  C   UNL     1      22.132  11.517   4.971  1.00  0.00    +0.262 C 
ATOM     21  C   UNL     1      20.587  13.807   4.891  1.00  0.00    +0.201 C 
ATOM     22  O   UNL     1      22.851  12.753   4.903  1.00  0.00    -0.332 OA
ATOM     23  C   UNL     1      22.084  13.893   4.539  1.00  0.00    +0.279 C 
BRANCH  19  24
ATOM     24  O   UNL     1      19.276  12.942   3.068  1.00  0.00    -0.387 OA
ATOM     25  H   UNL     1      19.398  13.916   3.001  1.00  0.00    +0.211 HD
ENDBRANCH  19  24
BRANCH  20  26
ATOM     26  C   UNL     1      21.657  11.161   6.391  1.00  0.00    +0.335 C 
ATOM     27  O   UNL     1      21.905  11.759   7.428  1.00  0.00    -0.249 OA
BRANCH  26  28
ATOM     28  O   UNL     1      20.840  10.084   6.418  1.00  0.00    -0.479 OA
ATOM     29  H   UNL     1      19.991  10.443   6.750  1.00  0.00    +0.296 HD
ENDBRANCH  26  28
ENDBRANCH  20  26
BRANCH  21  30
ATOM     30  O   UNL     1      20.447  13.776   6.325  1.00  0.00    -0.385 OA
ATOM     31  H   UNL     1      19.577  13.350   6.479  1.00  0.00    +0.211 HD
ENDBRANCH  21  30
BRANCH  23  32
ATOM     32  O   UNL     1      22.633  14.996   5.252  1.00  0.00    -0.366 OA
ATOM     33  H   UNL     1      21.858  15.456   5.617  1.00  0.00    +0.213 HD
ENDBRANCH  23  32
ENDBRANCH   1  18
TORSDOF 12
ENDMDL
MODEL 7
REMARK VINA RESULT:    -5.148     19.705     21.806
REMARK INTER + INTRA:          -9.298
REMARK INTER:                  -7.502
REMARK INTRA:                  -1.796
REMARK UNBOUND:                -1.742
REMARK SMILES O=C(O)[C@@H]1O[C@@H](O[C@H]2[C@H](O)[C@@H](O)[C@@H](O)O[C@H]2C(=O)O)[C@H](O)[C@@H](O)[C@@H]1O
REMARK SMILES IDX 7 1 6 2 22 3 24 4 20 5 4 6 5 7 23 8 25 10 21 12 2 14 1 15
REMARK SMILES IDX 3 16 8 18 9 19 16 20 11 21 15 22 13 23 10 24 17 26 18 27
REMARK SMILES IDX 19 28 12 30 14 32
REMARK H PARENT 23 9 25 11 21 13 3 17 10 25 19 29 12 31 14 33
ROOT
ATOM      1  O   UNL     1      -3.796   0.147  16.476  1.00  0.00    -0.340 OA
ENDROOT
BRANCH   1   2
ATOM      2  C   UNL     1      -3.559   1.498  16.086  1.00  0.00    +0.283 C 
ATOM      3  C   UNL     1      -3.812   3.733  17.233  1.00  0.00    +0.180 C 
ATOM      4  C   UNL     1      -2.499   3.508  18.004  1.00  0.00    +0.186 C 
ATOM      5  C   UNL     1      -4.511   2.415  16.905  1.00  0.00    +0.202 C 
ATOM      6  C   UNL     1      -1.888   2.147  17.640  1.00  0.00    +0.262 C 
ATOM      7  O   UNL     1      -2.188   1.849  16.269  1.00  0.00    -0.332 OA
BRANCH   3   8
ATOM      8  O   UNL     1      -4.671   4.586  18.004  1.00  0.00    -0.387 OA
ATOM      9  H   UNL     1      -5.016   5.260  17.384  1.00  0.00    +0.211 HD
ENDBRANCH   3   8
BRANCH   4  10
ATOM     10  O   UNL     1      -1.633   4.600  17.659  1.00  0.00    -0.387 OA
ATOM     11  H   UNL     1      -1.664   5.218  18.415  1.00  0.00    +0.211 HD
ENDBRANCH   4  10
BRANCH   5  12
ATOM     12  O   UNL     1      -5.736   2.699  16.203  1.00  0.00    -0.385 OA
ATOM     13  H   UNL     1      -6.465   2.237  16.657  1.00  0.00    +0.211 HD
ENDBRANCH   5  12
BRANCH   6  14
ATOM     14  C   UNL     1      -0.398   2.098  17.955  1.00  0.00    +0.335 C 
ATOM     15  O   UNL     1       0.178   2.741  18.820  1.00  0.00    -0.249 OA
BRANCH  14  16
ATOM     16  O   UNL     1       0.284   1.199  17.210  1.00  0.00    -0.479 OA
ATOM     17  H   UNL     1       0.152   1.510  16.290  1.00  0.00    +0.296 HD
ENDBRANCH  14  16
ENDBRANCH   6  14
ENDBRANCH   1   2
BRANCH   1  18
ATOM     18  C   UNL     1      -3.404  -0.853  15.525  1.00  0.00    +0.193 C 
ATOM     19  C   UNL     1      -2.099  -1.604  15.873  1.00  0.00    +0.180 C 
ATOM     20  C   UNL     1      -4.549  -1.862  15.343  1.00  0.00    +0.262 C 
ATOM     21  C   UNL     1      -2.023  -2.972  15.178  1.00  0.00    +0.201 C 
ATOM     22  O   UNL     1      -4.316  -2.720  14.221  1.00  0.00    -0.332 OA
ATOM     23  C   UNL     1      -2.955  -3.029  13.953  1.00  0.00    +0.279 C 
BRANCH  19  24
ATOM     24  O   UNL     1      -0.984  -0.815  15.425  1.00  0.00    -0.387 OA
ATOM     25  H   UNL     1      -0.440  -0.649  16.228  1.00  0.00    +0.211 HD
ENDBRANCH  19  24
BRANCH  20  26
ATOM     26  C   UNL     1      -4.875  -2.622  16.640  1.00  0.00    +0.335 C 
ATOM     27  O   UNL     1      -5.016  -3.828  16.777  1.00  0.00    -0.249 OA
BRANCH  26  28
ATOM     28  O   UNL     1      -4.957  -1.812  17.719  1.00  0.00    -0.479 OA
ATOM     29  H   UNL     1      -4.898  -0.911  17.339  1.00  0.00    +0.296 HD
ENDBRANCH  26  28
ENDBRANCH  20  26
BRANCH  21  30
ATOM     30  O   UNL     1      -2.406  -4.008  16.103  1.00  0.00    -0.385 OA
ATOM     31  H   UNL     1      -3.379  -4.079  16.006  1.00  0.00    +0.211 HD
ENDBRANCH  21  30
BRANCH  23  32
ATOM     32  O   UNL     1      -2.932  -4.362  13.454  1.00  0.00    -0.366 OA
ATOM     33  H   UNL     1      -3.831  -4.695  13.617  1.00  0.00    +0.213 HD
ENDBRANCH  23  32
ENDBRANCH   1  18
TORSDOF 12
ENDMDL
MODEL 8
REMARK VINA RESULT:    -5.120      2.379      4.161
REMARK INTER + INTRA:          -9.257
REMARK INTER:                  -7.865
REMARK INTRA:                  -1.392
REMARK UNBOUND:                -1.742
REMARK SMILES O=C(O)[C@@H]1O[C@@H](O[C@H]2[C@H](O)[C@@H](O)[C@@H](O)O[C@H]2C(=O)O)[C@H](O)[C@@H](O)[C@@H]1O
REMARK SMILES IDX 7 1 6 2 22 3 24 4 20 5 4 6 5 7 23 8 25 10 21 12 2 14 1 15
REMARK SMILES IDX 3 16 8 18 9 19 16 20 11 21 15 22 13 23 10 24 17 26 18 27
REMARK SMILES IDX 19 28 12 30 14 32
REMARK H PARENT 23 9 25 11 21 13 3 17 10 25 19 29 12 31 14 33
ROOT
ATOM      1  O   UNL     1     -18.053   3.015   0.028  1.00  0.00    -0.340 OA
ENDROOT
BRANCH   1   2
ATOM      2  C   UNL     1     -17.152   3.362   1.078  1.00  0.00    +0.283 C 
ATOM      3  C   UNL     1     -17.424   3.880   3.534  1.00  0.00    +0.180 C 
ATOM      4  C   UNL     1     -17.550   2.382   3.857  1.00  0.00    +0.186 C 
ATOM      5  C   UNL     1     -17.929   4.204   2.129  1.00  0.00    +0.202 C 
ATOM      6  C   UNL     1     -17.456   1.545   2.573  1.00  0.00    +0.262 C 
ATOM      7  O   UNL     1     -16.566   2.194   1.653  1.00  0.00    -0.332 OA
BRANCH   3   8
ATOM      8  O   UNL     1     -18.143   4.637   4.519  1.00  0.00    -0.387 OA
ATOM      9  H   UNL     1     -17.730   5.524   4.538  1.00  0.00    +0.211 HD
ENDBRANCH   3   8
BRANCH   4  10
ATOM     10  O   UNL     1     -16.495   2.075   4.782  1.00  0.00    -0.387 OA
ATOM     11  H   UNL     1     -15.828   1.575   4.273  1.00  0.00    +0.211 HD
ENDBRANCH   4  10
BRANCH   5  12
ATOM     12  O   UNL     1     -17.800   5.619   1.900  1.00  0.00    -0.385 OA
ATOM     13  H   UNL     1     -17.364   6.018   2.676  1.00  0.00    +0.211 HD
ENDBRANCH   5  12
BRANCH   6  14
ATOM     14  C   UNL     1     -17.065   0.101   2.871  1.00  0.00    +0.335 C 
ATOM     15  O   UNL     1     -16.081  -0.265   3.496  1.00  0.00    -0.249 OA
BRANCH  14  16
ATOM     16  O   UNL     1     -17.962  -0.806   2.423  1.00  0.00    -0.479 OA
ATOM     17  H   UNL     1     -17.685  -1.641   2.856  1.00  0.00    +0.296 HD
ENDBRANCH  14  16
ENDBRANCH   6  14
ENDBRANCH   1   2
BRANCH   1  18
ATOM     18  C   UNL     1     -17.467   2.872  -1.273  1.00  0.00    +0.193 C 
ATOM     19  C   UNL     1     -18.334   2.102  -2.295  1.00  0.00    +0.180 C 
ATOM     20  C   UNL     1     -17.119   4.260  -1.833  1.00  0.00    +0.262 C 
ATOM     21  C   UNL     1     -17.954   2.445  -3.743  1.00  0.00    +0.201 C 
ATOM     22  O   UNL     1     -16.298   4.162  -3.002  1.00  0.00    -0.332 OA
ATOM     23  C   UNL     1     -16.529   3.025  -3.824  1.00  0.00    +0.279 C 
BRANCH  19  24
ATOM     24  O   UNL     1     -18.125   0.693  -2.102  1.00  0.00    -0.387 OA
ATOM     25  H   UNL     1     -18.081   0.564  -1.128  1.00  0.00    +0.211 HD
ENDBRANCH  19  24
BRANCH  20  26
ATOM     26  C   UNL     1     -18.363   5.145  -2.028  1.00  0.00    +0.335 C 
ATOM     27  O   UNL     1     -18.665   5.790  -3.021  1.00  0.00    -0.249 OA
BRANCH  26  28
ATOM     28  O   UNL     1     -19.195   5.125  -0.963  1.00  0.00    -0.479 OA
ATOM     29  H   UNL     1     -19.315   6.073  -0.744  1.00  0.00    +0.296 HD
ENDBRANCH  26  28
ENDBRANCH  20  26
BRANCH  21  30
ATOM     30  O   UNL     1     -18.882   3.412  -4.272  1.00  0.00    -0.385 OA
ATOM     31  H   UNL     1     -19.415   3.692  -3.498  1.00  0.00    +0.211 HD
ENDBRANCH  21  30
BRANCH  23  32
ATOM     32  O   UNL     1     -16.309   3.444  -5.166  1.00  0.00    -0.366 OA
ATOM     33  H   UNL     1     -15.646   4.152  -5.092  1.00  0.00    +0.213 HD
ENDBRANCH  23  32
ENDBRANCH   1  18
TORSDOF 12
ENDMDL
MODEL 9
REMARK VINA RESULT:    -5.097     18.344     22.203
REMARK INTER + INTRA:          -9.223
REMARK INTER:                  -8.015
REMARK INTRA:                  -1.208
REMARK UNBOUND:                -1.742
REMARK SMILES O=C(O)[C@@H]1O[C@@H](O[C@H]2[C@H](O)[C@@H](O)[C@@H](O)O[C@H]2C(=O)O)[C@H](O)[C@@H](O)[C@@H]1O
REMARK SMILES IDX 7 1 6 2 22 3 24 4 20 5 4 6 5 7 23 8 25 10 21 12 2 14 1 15
REMARK SMILES IDX 3 16 8 18 9 19 16 20 11 21 15 22 13 23 10 24 17 26 18 27
REMARK SMILES IDX 19 28 12 30 14 32
REMARK H PARENT 23 9 25 11 21 13 3 17 10 25 19 29 12 31 14 33
ROOT
ATOM      1  O   UNL     1      -3.181  -0.364  16.281  1.00  0.00    -0.340 OA
ENDROOT
BRANCH   1   2
ATOM      2  C   UNL     1      -2.248  -1.166  15.561  1.00  0.00    +0.283 C 
ATOM      3  C   UNL     1      -1.584  -3.600  15.644  1.00  0.00    +0.180 C 
ATOM      4  C   UNL     1      -2.846  -3.992  14.855  1.00  0.00    +0.186 C 
ATOM      5  C   UNL     1      -1.804  -2.340  16.478  1.00  0.00    +0.202 C 
ATOM      6  C   UNL     1      -3.687  -2.748  14.534  1.00  0.00    +0.262 C 
ATOM      7  O   UNL     1      -2.813  -1.628  14.334  1.00  0.00    -0.332 OA
BRANCH   3   8
ATOM      8  O   UNL     1      -1.190  -4.700  16.479  1.00  0.00    -0.387 OA
ATOM      9  H   UNL     1      -0.288  -4.949  16.196  1.00  0.00    +0.211 HD
ENDBRANCH   3   8
BRANCH   4  10
ATOM     10  O   UNL     1      -2.391  -4.659  13.667  1.00  0.00    -0.387 OA
ATOM     11  H   UNL     1      -2.360  -3.975  12.969  1.00  0.00    +0.211 HD
ENDBRANCH   4  10
BRANCH   5  12
ATOM     12  O   UNL     1      -0.596  -2.042  17.203  1.00  0.00    -0.385 OA
ATOM     13  H   UNL     1      -0.018  -2.827  17.174  1.00  0.00    +0.211 HD
ENDBRANCH   5  12
BRANCH   6  14
ATOM     14  C   UNL     1      -4.629  -2.994  13.361  1.00  0.00    +0.335 C 
ATOM     15  O   UNL     1      -5.829  -3.211  13.432  1.00  0.00    -0.249 OA
BRANCH  14  16
ATOM     16  O   UNL     1      -4.028  -2.892  12.154  1.00  0.00    -0.479 OA
ATOM     17  H   UNL     1      -3.084  -2.742  12.375  1.00  0.00    +0.296 HD
ENDBRANCH  14  16
ENDBRANCH   6  14
ENDBRANCH   1   2
BRANCH   1  18
ATOM     18  C   UNL     1      -2.856   1.030  16.382  1.00  0.00    +0.193 C 
ATOM     19  C   UNL     1      -4.017   1.936  16.850  1.00  0.00    +0.180 C 
ATOM     20  C   UNL     1      -1.652   1.207  17.321  1.00  0.00    +0.262 C 
ATOM     21  C   UNL     1      -3.508   3.250  17.461  1.00  0.00    +0.201 C 
ATOM     22  O   UNL     1      -1.124   2.536  17.250  1.00  0.00    -0.332 OA
ATOM     23  C   UNL     1      -2.074   3.564  16.997  1.00  0.00    +0.279 C 
BRANCH  19  24
ATOM     24  O   UNL     1      -4.830   2.261  15.710  1.00  0.00    -0.387 OA
ATOM     25  H   UNL     1      -5.736   1.950  15.935  1.00  0.00    +0.211 HD
ENDBRANCH  19  24
BRANCH  20  26
ATOM     26  C   UNL     1      -1.951   0.741  18.756  1.00  0.00    +0.335 C 
ATOM     27  O   UNL     1      -2.572  -0.254  19.099  1.00  0.00    -0.249 OA
BRANCH  26  28
ATOM     28  O   UNL     1      -1.399   1.542  19.695  1.00  0.00    -0.479 OA
ATOM     29  H   UNL     1      -1.503   1.034  20.526  1.00  0.00    +0.296 HD
ENDBRANCH  26  28
ENDBRANCH  20  26
BRANCH  21  30
ATOM     30  O   UNL     1      -3.522   3.153  18.899  1.00  0.00    -0.385 OA
ATOM     31  H   UNL     1      -2.951   2.382  19.100  1.00  0.00    +0.211 HD
ENDBRANCH  21  30
BRANCH  23  32
ATOM     32  O   UNL     1      -1.630   4.711  17.712  1.00  0.00    -0.366 OA
ATOM     33  H   UNL     1      -1.073   5.191  17.075  1.00  0.00    +0.213 HD
ENDBRANCH  23  32
ENDBRANCH   1  18
TORSDOF 12
ENDMDL
