MODEL 1
REMARK VINA RESULT:    -5.976      0.000      0.000
REMARK INTER + INTRA:          -9.918
REMARK INTER:                  -8.771
REMARK INTRA:                  -1.147
REMARK UNBOUND:                -1.147
REMARK SMILES O=S(=O)(O)OC[C@@H]1O[C@H](O[C@H]2[C@@H]3OC[C@H]2O[C@@H](O)[C@H]3O)[C@@H](O)[C@H](O)[C@@H]1O
REMARK SMILES IDX 9 1 21 2 23 3 25 4 7 5 8 6 10 7 11 8 14 9 15 10 13 11 16 12
REMARK SMILES IDX 12 13 17 14 19 15 18 16 20 18 22 20 24 22 6 24 5 25 2 26
REMARK SMILES IDX 1 27 3 28 4 29 26 31
REMARK H PARENT 18 17 20 19 22 21 24 23 4 30 26 32
ROOT
ATOM      1  C   UNL     1      -0.587  11.852  -2.368  1.00  0.00    +0.282 C 
ATOM      2  C   UNL     1       0.229  10.709  -1.734  1.00  0.00    +0.202 C 
ATOM      3  C   UNL     1       1.229  11.319  -0.767  1.00  0.00    +0.179 C 
ATOM      4  C   UNL     1       0.475  11.999   0.379  1.00  0.00    +0.177 C 
ATOM      5  C   UNL     1      -0.832  12.687  -0.084  1.00  0.00    +0.180 C 
ATOM      6  O   UNL     1      -0.838  12.955  -1.499  1.00  0.00    -0.341 OA
ENDROOT
BRANCH   1   7
ATOM      7  O   UNL     1      -1.780  11.286  -2.917  1.00  0.00    -0.341 OA
BRANCH   7   8
ATOM      8  C   UNL     1      -1.794  11.295  -4.341  1.00  0.00    +0.184 C 
ATOM      9  C   UNL     1      -2.640  12.004  -6.409  1.00  0.00    +0.195 C 
ATOM     10  C   UNL     1      -2.507  12.486  -4.963  1.00  0.00    +0.179 C 
ATOM     11  O   UNL     1      -2.801  10.564  -6.333  1.00  0.00    -0.370 OA
ATOM     12  O   UNL     1      -3.773  12.706  -4.317  1.00  0.00    -0.342 OA
ATOM     13  C   UNL     1      -2.684  10.207  -4.931  1.00  0.00    +0.184 C 
ATOM     14  C   UNL     1      -4.706  11.633  -4.376  1.00  0.00    +0.279 C 
ATOM     15  C   UNL     1      -4.065  10.232  -4.262  1.00  0.00    +0.202 C 
BRANCH  14  16
ATOM     16  O   UNL     1      -5.452  11.741  -5.586  1.00  0.00    -0.366 OA
ATOM     17  H   UNL     1      -6.299  12.139  -5.316  1.00  0.00    +0.213 HD
ENDBRANCH  14  16
BRANCH  15  18
ATOM     18  O   UNL     1      -4.915   9.233  -4.839  1.00  0.00    -0.385 OA
ATOM     19  H   UNL     1      -5.691   9.207  -4.238  1.00  0.00    +0.211 HD
ENDBRANCH  15  18
ENDBRANCH   7   8
ENDBRANCH   1   7
BRANCH   2  20
ATOM     20  O   UNL     1       0.937   9.953  -2.732  1.00  0.00    -0.385 OA
ATOM     21  H   UNL     1       1.727  10.482  -2.962  1.00  0.00    +0.211 HD
ENDBRANCH   2  20
BRANCH   3  22
ATOM     22  O   UNL     1       2.091  10.302  -0.229  1.00  0.00    -0.387 OA
ATOM     23  H   UNL     1       1.783   9.468  -0.643  1.00  0.00    +0.211 HD
ENDBRANCH   3  22
BRANCH   5  24
ATOM     24  C   UNL     1      -2.130  11.997   0.374  1.00  0.00    +0.220 C 
BRANCH  24  25
ATOM     25  O   UNL     1      -2.606  12.661   1.543  1.00  0.00    -0.245 OA
BRANCH  25  26
ATOM     26  S   UNL     1      -3.187  11.745   2.750  1.00  0.00    +0.397 S 
ATOM     27  O   UNL     1      -4.329  10.988   2.291  1.00  0.00    -0.169 OA
ATOM     28  O   UNL     1      -3.228  12.550   3.951  1.00  0.00    -0.169 OA
BRANCH  26  29
ATOM     29  O   UNL     1      -1.979  10.709   2.993  1.00  0.00    -0.264 OA
ATOM     30  H   UNL     1      -2.335   9.812   2.827  1.00  0.00    +0.236 HD
ENDBRANCH  26  29
ENDBRANCH  25  26
ENDBRANCH  24  25
ENDBRANCH   5  24
BRANCH   4  31
ATOM     31  O   UNL     1       0.223  11.037   1.410  1.00  0.00    -0.387 OA
ATOM     32  H   UNL     1      -0.725  10.798   1.305  1.00  0.00    +0.211 HD
ENDBRANCH   4  31
TORSDOF 11
ENDMDL
MODEL 2
REMARK VINA RESULT:    -5.695     24.850     27.680
REMARK INTER + INTRA:          -9.506
REMARK INTER:                  -8.330
REMARK INTRA:                  -1.176
REMARK UNBOUND:                -1.147
REMARK SMILES O=S(=O)(O)OC[C@@H]1O[C@H](O[C@H]2[C@@H]3OC[C@H]2O[C@@H](O)[C@H]3O)[C@@H](O)[C@H](O)[C@@H]1O
REMARK SMILES IDX 9 1 21 2 23 3 25 4 7 5 8 6 10 7 11 8 14 9 15 10 13 11 16 12
REMARK SMILES IDX 12 13 17 14 19 15 18 16 20 18 22 20 24 22 6 24 5 25 2 26
REMARK SMILES IDX 1 27 3 28 4 29 26 31
REMARK H PARENT 18 17 20 19 22 21 24 23 4 30 26 32
ROOT
ATOM      1  C   UNL     1      13.729   0.563  18.713  1.00  0.00    +0.282 C 
ATOM      2  C   UNL     1      12.894  -0.470  17.932  1.00  0.00    +0.202 C 
ATOM      3  C   UNL     1      13.103  -1.831  18.573  1.00  0.00    +0.179 C 
ATOM      4  C   UNL     1      12.543  -1.811  19.998  1.00  0.00    +0.177 C 
ATOM      5  C   UNL     1      12.769  -0.458  20.715  1.00  0.00    +0.180 C 
ATOM      6  O   UNL     1      13.829   0.310  20.113  1.00  0.00    -0.341 OA
ENDROOT
BRANCH   1   7
ATOM      7  O   UNL     1      13.213   1.862  18.411  1.00  0.00    -0.341 OA
BRANCH   7   8
ATOM      8  C   UNL     1      14.190   2.890  18.532  1.00  0.00    +0.184 C 
ATOM      9  C   UNL     1      14.924   5.102  18.284  1.00  0.00    +0.195 C 
ATOM     10  C   UNL     1      13.634   4.305  18.485  1.00  0.00    +0.179 C 
ATOM     11  O   UNL     1      15.794   4.254  17.492  1.00  0.00    -0.370 OA
ATOM     12  O   UNL     1      12.703   4.443  17.397  1.00  0.00    -0.342 OA
ATOM     13  C   UNL     1      15.093   2.997  17.309  1.00  0.00    +0.184 C 
ATOM     14  C   UNL     1      13.216   4.194  16.093  1.00  0.00    +0.279 C 
ATOM     15  C   UNL     1      14.246   3.044  16.029  1.00  0.00    +0.202 C 
BRANCH  14  16
ATOM     16  O   UNL     1      13.785   5.399  15.588  1.00  0.00    -0.366 OA
ATOM     17  H   UNL     1      13.751   5.298  14.620  1.00  0.00    +0.213 HD
ENDBRANCH  14  16
BRANCH  15  18
ATOM     18  O   UNL     1      15.091   3.179  14.879  1.00  0.00    -0.385 OA
ATOM     19  H   UNL     1      15.474   2.284  14.760  1.00  0.00    +0.211 HD
ENDBRANCH  15  18
ENDBRANCH   7   8
ENDBRANCH   1   7
BRANCH   2  20
ATOM     20  O   UNL     1      13.292  -0.532  16.552  1.00  0.00    -0.385 OA
ATOM     21  H   UNL     1      14.096   0.019  16.477  1.00  0.00    +0.211 HD
ENDBRANCH   2  20
BRANCH   3  22
ATOM     22  O   UNL     1      12.430  -2.851  17.815  1.00  0.00    -0.387 OA
ATOM     23  H   UNL     1      13.097  -3.561  17.704  1.00  0.00    +0.211 HD
ENDBRANCH   3  22
BRANCH   5  24
ATOM     24  C   UNL     1      11.500   0.386  20.932  1.00  0.00    +0.220 C 
BRANCH  24  25
ATOM     25  O   UNL     1      11.039   0.176  22.264  1.00  0.00    -0.245 OA
BRANCH  25  26
ATOM     26  S   UNL     1       9.447  -0.050  22.487  1.00  0.00    +0.397 S 
ATOM     27  O   UNL     1       8.758   1.220  22.449  1.00  0.00    -0.169 OA
ATOM     28  O   UNL     1       9.269  -0.991  23.570  1.00  0.00    -0.169 OA
BRANCH  26  29
ATOM     29  O   UNL     1       9.037  -0.869  21.163  1.00  0.00    -0.264 OA
ATOM     30  H   UNL     1       9.837  -1.349  20.866  1.00  0.00    +0.236 HD
ENDBRANCH  26  29
ENDBRANCH  25  26
ENDBRANCH  24  25
ENDBRANCH   5  24
BRANCH   4  31
ATOM     31  O   UNL     1      11.154  -2.158  19.962  1.00  0.00    -0.387 OA
ATOM     32  H   UNL     1      10.709  -1.373  19.571  1.00  0.00    +0.211 HD
ENDBRANCH   4  31
TORSDOF 11
ENDMDL
MODEL 3
REMARK VINA RESULT:    -5.673     52.354     54.128
REMARK INTER + INTRA:          -9.473
REMARK INTER:                  -8.004
REMARK INTRA:                  -1.469
REMARK UNBOUND:                -1.147
REMARK SMILES O=S(=O)(O)OC[C@@H]1O[C@H](O[C@H]2[C@@H]3OC[C@H]2O[C@@H](O)[C@H]3O)[C@@H](O)[C@H](O)[C@@H]1O
REMARK SMILES IDX 9 1 21 2 23 3 25 4 7 5 8 6 10 7 11 8 14 9 15 10 13 11 16 12
REMARK SMILES IDX 12 13 17 14 19 15 18 16 20 18 22 20 24 22 6 24 5 25 2 26
REMARK SMILES IDX 1 27 3 28 4 29 26 31
REMARK H PARENT 18 17 20 19 22 21 24 23 4 30 26 32
ROOT
ATOM      1  C   UNL     1     -22.378 -19.833 -41.763  1.00  0.00    +0.282 C 
ATOM      2  C   UNL     1     -22.381 -18.304 -41.952  1.00  0.00    +0.202 C 
ATOM      3  C   UNL     1     -23.818 -17.852 -42.144  1.00  0.00    +0.179 C 
ATOM      4  C   UNL     1     -24.612 -18.131 -40.865  1.00  0.00    +0.177 C 
ATOM      5  C   UNL     1     -24.190 -19.448 -40.169  1.00  0.00    +0.180 C 
ATOM      6  O   UNL     1     -23.511 -20.348 -41.065  1.00  0.00    -0.341 OA
ENDROOT
BRANCH   1   7
ATOM      7  O   UNL     1     -21.133 -20.197 -41.160  1.00  0.00    -0.341 OA
BRANCH   7   8
ATOM      8  C   UNL     1     -20.613 -21.425 -41.659  1.00  0.00    +0.184 C 
ATOM      9  C   UNL     1     -18.898 -23.001 -41.929  1.00  0.00    +0.195 C 
ATOM     10  C   UNL     1     -19.361 -21.920 -40.950  1.00  0.00    +0.179 C 
ATOM     11  O   UNL     1     -19.284 -22.533 -43.247  1.00  0.00    -0.370 OA
ATOM     12  O   UNL     1     -18.414 -20.848 -40.796  1.00  0.00    -0.342 OA
ATOM     13  C   UNL     1     -20.006 -21.290 -43.050  1.00  0.00    +0.184 C 
ATOM     14  C   UNL     1     -17.954 -20.236 -41.996  1.00  0.00    +0.279 C 
ATOM     15  C   UNL     1     -19.035 -20.101 -43.091  1.00  0.00    +0.202 C 
BRANCH  14  16
ATOM     16  O   UNL     1     -16.839 -20.976 -42.488  1.00  0.00    -0.366 OA
ATOM     17  H   UNL     1     -16.854 -21.807 -41.981  1.00  0.00    +0.213 HD
ENDBRANCH  14  16
BRANCH  15  18
ATOM     18  O   UNL     1     -18.437 -19.992 -44.389  1.00  0.00    -0.385 OA
ATOM     19  H   UNL     1     -19.149 -19.611 -44.947  1.00  0.00    +0.211 HD
ENDBRANCH  15  18
ENDBRANCH   7   8
ENDBRANCH   1   7
BRANCH   2  20
ATOM     20  O   UNL     1     -21.606 -17.915 -43.099  1.00  0.00    -0.385 OA
ATOM     21  H   UNL     1     -21.535 -16.941 -43.060  1.00  0.00    +0.211 HD
ENDBRANCH   2  20
BRANCH   3  22
ATOM     22  O   UNL     1     -23.867 -16.445 -42.434  1.00  0.00    -0.387 OA
ATOM     23  H   UNL     1     -23.678 -16.006 -41.578  1.00  0.00    +0.211 HD
ENDBRANCH   3  22
BRANCH   5  24
ATOM     24  C   UNL     1     -23.424 -19.270 -38.845  1.00  0.00    +0.220 C 
BRANCH  24  25
ATOM     25  O   UNL     1     -23.573 -20.459 -38.074  1.00  0.00    -0.245 OA
BRANCH  25  26
ATOM     26  S   UNL     1     -22.242 -21.339 -37.775  1.00  0.00    +0.397 S 
ATOM     27  O   UNL     1     -22.132 -22.412 -38.737  1.00  0.00    -0.169 OA
ATOM     28  O   UNL     1     -22.162 -21.572 -36.350  1.00  0.00    -0.169 OA
BRANCH  26  29
ATOM     29  O   UNL     1     -21.067 -20.283 -38.084  1.00  0.00    -0.264 OA
ATOM     30  H   UNL     1     -20.426 -20.734 -38.670  1.00  0.00    +0.236 HD
ENDBRANCH  26  29
ENDBRANCH  25  26
ENDBRANCH  24  25
ENDBRANCH   5  24
BRANCH   4  31
ATOM     31  O   UNL     1     -24.488 -17.010 -39.982  1.00  0.00    -0.387 OA
ATOM     32  H   UNL     1     -23.694 -16.526 -40.301  1.00  0.00    +0.211 HD
ENDBRANCH   4  31
TORSDOF 11
ENDMDL
MODEL 4
REMARK VINA RESULT:    -5.620      3.379      6.040
REMARK INTER + INTRA:          -9.395
REMARK INTER:                  -8.326
REMARK INTRA:                  -1.070
REMARK UNBOUND:                -1.147
REMARK SMILES O=S(=O)(O)OC[C@@H]1O[C@H](O[C@H]2[C@@H]3OC[C@H]2O[C@@H](O)[C@H]3O)[C@@H](O)[C@H](O)[C@@H]1O
REMARK SMILES IDX 9 1 21 2 23 3 25 4 7 5 8 6 10 7 11 8 14 9 15 10 13 11 16 12
REMARK SMILES IDX 12 13 17 14 19 15 18 16 20 18 22 20 24 22 6 24 5 25 2 26
REMARK SMILES IDX 1 27 3 28 4 29 26 31
REMARK H PARENT 18 17 20 19 22 21 24 23 4 30 26 32
ROOT
ATOM      1  C   UNL     1      -2.264  12.603   2.011  1.00  0.00    +0.282 C 
ATOM      2  C   UNL     1      -2.480  13.844   2.899  1.00  0.00    +0.202 C 
ATOM      3  C   UNL     1      -3.105  13.388   4.206  1.00  0.00    +0.179 C 
ATOM      4  C   UNL     1      -2.116  12.488   4.953  1.00  0.00    +0.177 C 
ATOM      5  C   UNL     1      -1.297  11.578   4.007  1.00  0.00    +0.180 C 
ATOM      6  O   UNL     1      -1.927  11.414   2.722  1.00  0.00    -0.341 OA
ENDROOT
BRANCH   1   7
ATOM      7  O   UNL     1      -1.307  12.946   1.004  1.00  0.00    -0.341 OA
BRANCH   7   8
ATOM      8  C   UNL     1      -0.827  11.815   0.285  1.00  0.00    +0.184 C 
ATOM      9  C   UNL     1       0.844  10.631  -0.854  1.00  0.00    +0.195 C 
ATOM     10  C   UNL     1       0.687  11.682   0.245  1.00  0.00    +0.179 C 
ATOM     11  O   UNL     1      -0.248  10.861  -1.781  1.00  0.00    -0.370 OA
ATOM     12  O   UNL     1       1.294  12.945  -0.084  1.00  0.00    -0.342 OA
ATOM     13  C   UNL     1      -1.050  11.931  -1.218  1.00  0.00    +0.184 C 
ATOM     14  C   UNL     1       0.930  13.511  -1.338  1.00  0.00    +0.279 C 
ATOM     15  C   UNL     1      -0.549  13.291  -1.725  1.00  0.00    +0.202 C 
BRANCH  14  16
ATOM     16  O   UNL     1       1.790  12.983  -2.345  1.00  0.00    -0.366 OA
ATOM     17  H   UNL     1       1.294  12.235  -2.721  1.00  0.00    +0.213 HD
ENDBRANCH  14  16
BRANCH  15  18
ATOM     18  O   UNL     1      -0.726  13.389  -3.144  1.00  0.00    -0.385 OA
ATOM     19  H   UNL     1      -1.269  14.198  -3.259  1.00  0.00    +0.211 HD
ENDBRANCH  15  18
ENDBRANCH   7   8
ENDBRANCH   1   7
BRANCH   2  20
ATOM     20  O   UNL     1      -3.351  14.797   2.266  1.00  0.00    -0.385 OA
ATOM     21  H   UNL     1      -4.019  14.274   1.782  1.00  0.00    +0.211 HD
ENDBRANCH   2  20
BRANCH   3  22
ATOM     22  O   UNL     1      -3.428  14.521   5.030  1.00  0.00    -0.387 OA
ATOM     23  H   UNL     1      -2.954  15.273   4.617  1.00  0.00    +0.211 HD
ENDBRANCH   3  22
BRANCH   5  24
ATOM     24  C   UNL     1       0.192  11.949   3.872  1.00  0.00    +0.220 C 
BRANCH  24  25
ATOM     25  O   UNL     1       0.922  11.265   4.887  1.00  0.00    -0.245 OA
BRANCH  25  26
ATOM     26  S   UNL     1       2.486  11.654   5.087  1.00  0.00    +0.397 S 
ATOM     27  O   UNL     1       2.943  11.209   6.384  1.00  0.00    -0.169 OA
ATOM     28  O   UNL     1       2.678  13.010   4.626  1.00  0.00    -0.169 OA
BRANCH  26  29
ATOM     29  O   UNL     1       3.202  10.737   3.975  1.00  0.00    -0.264 OA
ATOM     30  H   UNL     1       4.149  10.682   4.218  1.00  0.00    +0.236 HD
ENDBRANCH  26  29
ENDBRANCH  25  26
ENDBRANCH  24  25
ENDBRANCH   5  24
BRANCH   4  31
ATOM     31  O   UNL     1      -1.263  13.301   5.766  1.00  0.00    -0.387 OA
ATOM     32  H   UNL     1      -1.766  13.437   6.600  1.00  0.00    +0.211 HD
ENDBRANCH   4  31
TORSDOF 11
ENDMDL
MODEL 5
REMARK VINA RESULT:    -5.501      5.501      7.637
REMARK INTER + INTRA:          -9.221
REMARK INTER:                  -8.085
REMARK INTRA:                  -1.136
REMARK UNBOUND:                -1.147
REMARK SMILES O=S(=O)(O)OC[C@@H]1O[C@H](O[C@H]2[C@@H]3OC[C@H]2O[C@@H](O)[C@H]3O)[C@@H](O)[C@H](O)[C@@H]1O
REMARK SMILES IDX 9 1 21 2 23 3 25 4 7 5 8 6 10 7 11 8 14 9 15 10 13 11 16 12
REMARK SMILES IDX 12 13 17 14 19 15 18 16 20 18 22 20 24 22 6 24 5 25 2 26
REMARK SMILES IDX 1 27 3 28 4 29 26 31
REMARK H PARENT 18 17 20 19 22 21 24 23 4 30 26 32
ROOT
ATOM      1  C   UNL     1       1.091  13.170   3.344  1.00  0.00    +0.282 C 
ATOM      2  C   UNL     1       0.718  11.970   4.236  1.00  0.00    +0.202 C 
ATOM      3  C   UNL     1       1.995  11.229   4.593  1.00  0.00    +0.179 C 
ATOM      4  C   UNL     1       2.887  12.138   5.443  1.00  0.00    +0.177 C 
ATOM      5  C   UNL     1       2.825  13.622   5.006  1.00  0.00    +0.180 C 
ATOM      6  O   UNL     1       2.344  13.776   3.658  1.00  0.00    -0.341 OA
ENDROOT
BRANCH   1   7
ATOM      7  O   UNL     1      -0.002  14.092   3.371  1.00  0.00    -0.341 OA
BRANCH   7   8
ATOM      8  C   UNL     1      -0.510  14.388   2.074  1.00  0.00    +0.184 C 
ATOM      9  C   UNL     1      -1.850  15.619   0.596  1.00  0.00    +0.195 C 
ATOM     10  C   UNL     1      -1.119  15.774   1.931  1.00  0.00    +0.179 C 
ATOM     11  O   UNL     1      -2.282  14.235   0.540  1.00  0.00    -0.370 OA
ATOM     12  O   UNL     1      -2.000  16.052   3.034  1.00  0.00    -0.342 OA
ATOM     13  C   UNL     1      -1.763  13.591   1.732  1.00  0.00    +0.184 C 
ATOM     14  C   UNL     1      -3.104  15.168   3.197  1.00  0.00    +0.279 C 
ATOM     15  C   UNL     1      -2.783  13.692   2.875  1.00  0.00    +0.202 C 
BRANCH  14  16
ATOM     16  O   UNL     1      -4.183  15.630   2.387  1.00  0.00    -0.366 OA
ATOM     17  H   UNL     1      -4.944  15.668   2.994  1.00  0.00    +0.213 HD
ENDBRANCH  14  16
BRANCH  15  18
ATOM     18  O   UNL     1      -3.977  12.971   2.541  1.00  0.00    -0.385 OA
ATOM     19  H   UNL     1      -3.703  12.391   1.799  1.00  0.00    +0.211 HD
ENDBRANCH  15  18
ENDBRANCH   7   8
ENDBRANCH   1   7
BRANCH   2  20
ATOM     20  O   UNL     1      -0.177  11.071   3.559  1.00  0.00    -0.385 OA
ATOM     21  H   UNL     1       0.298  10.219   3.488  1.00  0.00    +0.211 HD
ENDBRANCH   2  20
BRANCH   3  22
ATOM     22  O   UNL     1       1.691  10.036   5.336  1.00  0.00    -0.387 OA
ATOM     23  H   UNL     1       2.534   9.793   5.774  1.00  0.00    +0.211 HD
ENDBRANCH   3  22
BRANCH   5  24
ATOM     24  C   UNL     1       2.097  14.560   5.986  1.00  0.00    +0.220 C 
BRANCH  24  25
ATOM     25  O   UNL     1       2.968  15.642   6.308  1.00  0.00    -0.245 OA
BRANCH  25  26
ATOM     26  S   UNL     1       3.790  15.562   7.706  1.00  0.00    +0.397 S 
ATOM     27  O   UNL     1       3.600  14.265   8.316  1.00  0.00    -0.169 OA
ATOM     28  O   UNL     1       3.574  16.793   8.430  1.00  0.00    -0.169 OA
BRANCH  26  29
ATOM     29  O   UNL     1       5.316  15.645   7.200  1.00  0.00    -0.264 OA
ATOM     30  H   UNL     1       5.757  14.820   7.487  1.00  0.00    +0.236 HD
ENDBRANCH  26  29
ENDBRANCH  25  26
ENDBRANCH  24  25
ENDBRANCH   5  24
BRANCH   4  31
ATOM     31  O   UNL     1       2.536  11.983   6.823  1.00  0.00    -0.387 OA
ATOM     32  H   UNL     1       1.800  12.619   6.967  1.00  0.00    +0.211 HD
ENDBRANCH   4  31
TORSDOF 11
ENDMDL
MODEL 6
REMARK VINA RESULT:    -5.498     24.931     28.194
REMARK INTER + INTRA:          -9.217
REMARK INTER:                  -8.060
REMARK INTRA:                  -1.157
REMARK UNBOUND:                -1.147
REMARK SMILES O=S(=O)(O)OC[C@@H]1O[C@H](O[C@H]2[C@@H]3OC[C@H]2O[C@@H](O)[C@H]3O)[C@@H](O)[C@H](O)[C@@H]1O
REMARK SMILES IDX 9 1 21 2 23 3 25 4 7 5 8 6 10 7 11 8 14 9 15 10 13 11 16 12
REMARK SMILES IDX 12 13 17 14 19 15 18 16 20 18 22 20 24 22 6 24 5 25 2 26
REMARK SMILES IDX 1 27 3 28 4 29 26 31
REMARK H PARENT 18 17 20 19 22 21 24 23 4 30 26 32
ROOT
ATOM      1  C   UNL     1      14.073   2.413  18.686  1.00  0.00    +0.282 C 
ATOM      2  C   UNL     1      13.275   2.542  17.375  1.00  0.00    +0.202 C 
ATOM      3  C   UNL     1      12.619   3.912  17.351  1.00  0.00    +0.179 C 
ATOM      4  C   UNL     1      13.704   4.991  17.305  1.00  0.00    +0.177 C 
ATOM      5  C   UNL     1      14.951   4.629  18.146  1.00  0.00    +0.180 C 
ATOM      6  O   UNL     1      14.668   3.626  19.142  1.00  0.00    -0.341 OA
ENDROOT
BRANCH   1   7
ATOM      7  O   UNL     1      15.017   1.351  18.521  1.00  0.00    -0.341 OA
BRANCH   7   8
ATOM      8  C   UNL     1      14.945   0.378  19.558  1.00  0.00    +0.184 C 
ATOM      9  C   UNL     1      15.542  -1.666  20.537  1.00  0.00    +0.195 C 
ATOM     10  C   UNL     1      16.104  -0.606  19.589  1.00  0.00    +0.179 C 
ATOM     11  O   UNL     1      14.111  -1.687  20.304  1.00  0.00    -0.370 OA
ATOM     12  O   UNL     1      16.373  -1.108  18.268  1.00  0.00    -0.342 OA
ATOM     13  C   UNL     1      13.833  -0.642  19.337  1.00  0.00    +0.184 C 
ATOM     14  C   UNL     1      15.306  -1.800  17.628  1.00  0.00    +0.279 C 
ATOM     15  C   UNL     1      13.908  -1.206  17.911  1.00  0.00    +0.202 C 
BRANCH  14  16
ATOM     16  O   UNL     1      15.351  -3.170  18.017  1.00  0.00    -0.366 OA
ATOM     17  H   UNL     1      15.849  -3.170  18.854  1.00  0.00    +0.213 HD
ENDBRANCH  14  16
BRANCH  15  18
ATOM     18  O   UNL     1      12.886  -2.191  17.711  1.00  0.00    -0.385 OA
ATOM     19  H   UNL     1      13.336  -2.900  17.204  1.00  0.00    +0.211 HD
ENDBRANCH  15  18
ENDBRANCH   7   8
ENDBRANCH   1   7
BRANCH   2  20
ATOM     20  O   UNL     1      12.258   1.530  17.277  1.00  0.00    -0.385 OA
ATOM     21  H   UNL     1      11.501   1.949  16.822  1.00  0.00    +0.211 HD
ENDBRANCH   2  20
BRANCH   3  22
ATOM     22  O   UNL     1      11.771   4.043  16.197  1.00  0.00    -0.387 OA
ATOM     23  H   UNL     1      11.740   5.006  16.018  1.00  0.00    +0.211 HD
ENDBRANCH   3  22
BRANCH   5  24
ATOM     24  C   UNL     1      16.211   4.287  17.331  1.00  0.00    +0.220 C 
BRANCH  24  25
ATOM     25  O   UNL     1      16.924   5.495  17.073  1.00  0.00    -0.245 OA
BRANCH  25  26
ATOM     26  S   UNL     1      17.729   5.614  15.668  1.00  0.00    +0.397 S 
ATOM     27  O   UNL     1      18.477   4.402  15.424  1.00  0.00    -0.169 OA
ATOM     28  O   UNL     1      18.339   6.922  15.604  1.00  0.00    -0.169 OA
BRANCH  26  29
ATOM     29  O   UNL     1      16.526   5.670  14.599  1.00  0.00    -0.264 OA
ATOM     30  H   UNL     1      16.582   4.852  14.064  1.00  0.00    +0.236 HD
ENDBRANCH  26  29
ENDBRANCH  25  26
ENDBRANCH  24  25
ENDBRANCH   5  24
BRANCH   4  31
ATOM     31  O   UNL     1      14.050   5.250  15.940  1.00  0.00    -0.387 OA
ATOM     32  H   UNL     1      15.013   5.057  15.884  1.00  0.00    +0.211 HD
ENDBRANCH   4  31
TORSDOF 11
ENDMDL
MODEL 7
REMARK VINA RESULT:    -5.471      5.168      7.597
REMARK INTER + INTRA:          -9.176
REMARK INTER:                  -7.869
REMARK INTRA:                  -1.306
REMARK UNBOUND:                -1.147
REMARK SMILES O=S(=O)(O)OC[C@@H]1O[C@H](O[C@H]2[C@@H]3OC[C@H]2O[C@@H](O)[C@H]3O)[C@@H](O)[C@H](O)[C@@H]1O
REMARK SMILES IDX 9 1 21 2 23 3 25 4 7 5 8 6 10 7 11 8 14 9 15 10 13 11 16 12
REMARK SMILES IDX 12 13 17 14 19 15 18 16 20 18 22 20 24 22 6 24 5 25 2 26
REMARK SMILES IDX 1 27 3 28 4 29 26 31
REMARK H PARENT 18 17 20 19 22 21 24 23 4 30 26 32
ROOT
ATOM      1  C   UNL     1       1.353  12.817   3.671  1.00  0.00    +0.282 C 
ATOM      2  C   UNL     1       1.360  12.010   4.984  1.00  0.00    +0.202 C 
ATOM      3  C   UNL     1       2.797  11.899   5.464  1.00  0.00    +0.179 C 
ATOM      4  C   UNL     1       3.324  13.295   5.811  1.00  0.00    +0.177 C 
ATOM      5  C   UNL     1       2.800  14.392   4.854  1.00  0.00    +0.180 C 
ATOM      6  O   UNL     1       2.334  13.851   3.603  1.00  0.00    -0.341 OA
ENDROOT
BRANCH   1   7
ATOM      7  O   UNL     1       0.021  13.292   3.456  1.00  0.00    -0.341 OA
BRANCH   7   8
ATOM      8  C   UNL     1      -0.504  12.918   2.187  1.00  0.00    +0.184 C 
ATOM      9  C   UNL     1      -2.174  12.926   0.542  1.00  0.00    +0.195 C 
ATOM     10  C   UNL     1      -1.646  13.790   1.688  1.00  0.00    +0.179 C 
ATOM     11  O   UNL     1      -1.961  11.550   0.952  1.00  0.00    -0.370 OA
ATOM     12  O   UNL     1      -2.611  14.000   2.735  1.00  0.00    -0.342 OA
ATOM     13  C   UNL     1      -1.270  11.601   2.227  1.00  0.00    +0.184 C 
ATOM     14  C   UNL     1      -3.229  12.833   3.265  1.00  0.00    +0.279 C 
ATOM     15  C   UNL     1      -2.286  11.615   3.378  1.00  0.00    +0.202 C 
BRANCH  14  16
ATOM     16  O   UNL     1      -4.362  12.511   2.463  1.00  0.00    -0.366 OA
ATOM     17  H   UNL     1      -4.091  11.720   1.963  1.00  0.00    +0.213 HD
ENDBRANCH  14  16
BRANCH  15  18
ATOM     18  O   UNL     1      -3.033  10.391   3.398  1.00  0.00    -0.385 OA
ATOM     19  H   UNL     1      -2.823   9.972   2.536  1.00  0.00    +0.211 HD
ENDBRANCH  15  18
ENDBRANCH   7   8
ENDBRANCH   1   7
BRANCH   2  20
ATOM     20  O   UNL     1       0.823  10.690   4.792  1.00  0.00    -0.385 OA
ATOM     21  H   UNL     1       0.031  10.800   4.231  1.00  0.00    +0.211 HD
ENDBRANCH   2  20
BRANCH   3  22
ATOM     22  O   UNL     1       2.873  11.061   6.630  1.00  0.00    -0.387 OA
ATOM     23  H   UNL     1       3.378  11.588   7.285  1.00  0.00    +0.211 HD
ENDBRANCH   3  22
BRANCH   5  24
ATOM     24  C   UNL     1       1.781  15.365   5.473  1.00  0.00    +0.220 C 
BRANCH  24  25
ATOM     25  O   UNL     1       2.389  16.650   5.579  1.00  0.00    -0.245 OA
BRANCH  25  26
ATOM     26  S   UNL     1       3.025  17.071   7.012  1.00  0.00    +0.397 S 
ATOM     27  O   UNL     1       2.803  18.478   7.257  1.00  0.00    -0.169 OA
ATOM     28  O   UNL     1       4.333  16.467   7.123  1.00  0.00    -0.169 OA
BRANCH  26  29
ATOM     29  O   UNL     1       2.104  16.245   8.041  1.00  0.00    -0.264 OA
ATOM     30  H   UNL     1       2.632  15.479   8.345  1.00  0.00    +0.236 HD
ENDBRANCH  26  29
ENDBRANCH  25  26
ENDBRANCH  24  25
ENDBRANCH   5  24
BRANCH   4  31
ATOM     31  O   UNL     1       3.002  13.592   7.174  1.00  0.00    -0.387 OA
ATOM     32  H   UNL     1       3.754  13.230   7.695  1.00  0.00    +0.211 HD
ENDBRANCH   4  31
TORSDOF 11
ENDMDL
MODEL 8
REMARK VINA RESULT:    -5.393      3.345      5.632
REMARK INTER + INTRA:          -9.063
REMARK INTER:                  -8.066
REMARK INTRA:                  -0.997
REMARK UNBOUND:                -1.147
REMARK SMILES O=S(=O)(O)OC[C@@H]1O[C@H](O[C@H]2[C@@H]3OC[C@H]2O[C@@H](O)[C@H]3O)[C@@H](O)[C@H](O)[C@@H]1O
REMARK SMILES IDX 9 1 21 2 23 3 25 4 7 5 8 6 10 7 11 8 14 9 15 10 13 11 16 12
REMARK SMILES IDX 12 13 17 14 19 15 18 16 20 18 22 20 24 22 6 24 5 25 2 26
REMARK SMILES IDX 1 27 3 28 4 29 26 31
REMARK H PARENT 18 17 20 19 22 21 24 23 4 30 26 32
ROOT
ATOM      1  C   UNL     1      -2.345  13.173   2.334  1.00  0.00    +0.282 C 
ATOM      2  C   UNL     1      -2.065  14.423   3.190  1.00  0.00    +0.202 C 
ATOM      3  C   UNL     1      -2.542  14.145   4.606  1.00  0.00    +0.179 C 
ATOM      4  C   UNL     1      -1.706  13.012   5.207  1.00  0.00    +0.177 C 
ATOM      5  C   UNL     1      -1.337  11.920   4.174  1.00  0.00    +0.180 C 
ATOM      6  O   UNL     1      -2.209  11.934   3.027  1.00  0.00    -0.341 OA
ENDROOT
BRANCH   1   7
ATOM      7  O   UNL     1      -1.530  13.254   1.162  1.00  0.00    -0.341 OA
BRANCH   7   8
ATOM      8  C   UNL     1      -1.903  12.314   0.160  1.00  0.00    +0.184 C 
ATOM      9  C   UNL     1      -2.123  11.630  -2.071  1.00  0.00    +0.195 C 
ATOM     10  C   UNL     1      -1.263  12.547  -1.201  1.00  0.00    +0.179 C 
ATOM     11  O   UNL     1      -3.448  11.650  -1.480  1.00  0.00    -0.370 OA
ATOM     12  O   UNL     1      -1.357  13.935  -1.569  1.00  0.00    -0.342 OA
ATOM     13  C   UNL     1      -3.354  12.463  -0.281  1.00  0.00    +0.184 C 
ATOM     14  C   UNL     1      -2.671  14.472  -1.671  1.00  0.00    +0.279 C 
ATOM     15  C   UNL     1      -3.659  13.931  -0.613  1.00  0.00    +0.202 C 
BRANCH  14  16
ATOM     16  O   UNL     1      -3.166  14.224  -2.984  1.00  0.00    -0.366 OA
ATOM     17  H   UNL     1      -4.063  13.872  -2.845  1.00  0.00    +0.213 HD
ENDBRANCH  14  16
BRANCH  15  18
ATOM     18  O   UNL     1      -5.013  14.069  -1.061  1.00  0.00    -0.385 OA
ATOM     19  H   UNL     1      -5.543  14.008  -0.237  1.00  0.00    +0.211 HD
ENDBRANCH  15  18
ENDBRANCH   7   8
ENDBRANCH   1   7
BRANCH   2  20
ATOM     20  O   UNL     1      -2.755  15.576   2.678  1.00  0.00    -0.385 OA
ATOM     21  H   UNL     1      -3.309  15.254   1.940  1.00  0.00    +0.211 HD
ENDBRANCH   2  20
BRANCH   3  22
ATOM     22  O   UNL     1      -2.403  15.320   5.422  1.00  0.00    -0.387 OA
ATOM     23  H   UNL     1      -2.969  15.994   4.989  1.00  0.00    +0.211 HD
ENDBRANCH   3  22
BRANCH   5  24
ATOM     24  C   UNL     1       0.146  11.883   3.765  1.00  0.00    +0.220 C 
BRANCH  24  25
ATOM     25  O   UNL     1       0.869  11.148   4.750  1.00  0.00    -0.245 OA
BRANCH  25  26
ATOM     26  S   UNL     1       2.374  11.639   5.109  1.00  0.00    +0.397 S 
ATOM     27  O   UNL     1       2.756  11.145   6.412  1.00  0.00    -0.169 OA
ATOM     28  O   UNL     1       2.495  13.033   4.747  1.00  0.00    -0.169 OA
BRANCH  26  29
ATOM     29  O   UNL     1       3.252  10.853   4.012  1.00  0.00    -0.264 OA
ATOM     30  H   UNL     1       3.044  11.252   3.142  1.00  0.00    +0.236 HD
ENDBRANCH  26  29
ENDBRANCH  25  26
ENDBRANCH  24  25
ENDBRANCH   5  24
BRANCH   4  31
ATOM     31  O   UNL     1      -0.538  13.566   5.822  1.00  0.00    -0.387 OA
ATOM     32  H   UNL     1      -0.646  14.540   5.735  1.00  0.00    +0.211 HD
ENDBRANCH   4  31
TORSDOF 11
ENDMDL
MODEL 9
REMARK VINA RESULT:    -5.157      2.316      4.441
REMARK INTER + INTRA:          -8.715
REMARK INTER:                  -7.478
REMARK INTRA:                  -1.237
REMARK UNBOUND:                -1.147
REMARK SMILES O=S(=O)(O)OC[C@@H]1O[C@H](O[C@H]2[C@@H]3OC[C@H]2O[C@@H](O)[C@H]3O)[C@@H](O)[C@H](O)[C@@H]1O
REMARK SMILES IDX 9 1 21 2 23 3 25 4 7 5 8 6 10 7 11 8 14 9 15 10 13 11 16 12
REMARK SMILES IDX 12 13 17 14 19 15 18 16 20 18 22 20 24 22 6 24 5 25 2 26
REMARK SMILES IDX 1 27 3 28 4 29 26 31
REMARK H PARENT 18 17 20 19 22 21 24 23 4 30 26 32
ROOT
ATOM      1  C   UNL     1      -3.049  13.104  -2.042  1.00  0.00    +0.282 C 
ATOM      2  C   UNL     1      -3.210  14.466  -1.339  1.00  0.00    +0.202 C 
ATOM      3  C   UNL     1      -4.540  14.467  -0.605  1.00  0.00    +0.179 C 
ATOM      4  C   UNL     1      -4.507  13.409   0.502  1.00  0.00    +0.177 C 
ATOM      5  C   UNL     1      -3.729  12.135   0.096  1.00  0.00    +0.180 C 
ATOM      6  O   UNL     1      -3.607  11.999  -1.333  1.00  0.00    -0.341 OA
ENDROOT
BRANCH   1   7
ATOM      7  O   UNL     1      -1.664  12.932  -2.351  1.00  0.00    -0.341 OA
BRANCH   7   8
ATOM      8  C   UNL     1      -1.439  12.566  -3.709  1.00  0.00    +0.184 C 
ATOM      9  C   UNL     1      -1.046  10.993  -5.402  1.00  0.00    +0.195 C 
ATOM     10  C   UNL     1      -1.707  11.103  -4.027  1.00  0.00    +0.179 C 
ATOM     11  O   UNL     1       0.080  11.906  -5.374  1.00  0.00    -0.370 OA
ATOM     12  O   UNL     1      -1.102  10.255  -3.034  1.00  0.00    -0.342 OA
ATOM     13  C   UNL     1       0.037  12.579  -4.089  1.00  0.00    +0.184 C 
ATOM     14  C   UNL     1       0.311  10.359  -2.893  1.00  0.00    +0.279 C 
ATOM     15  C   UNL     1       0.857  11.795  -3.054  1.00  0.00    +0.202 C 
BRANCH  14  16
ATOM     16  O   UNL     1       0.931   9.484  -3.832  1.00  0.00    -0.366 OA
ATOM     17  H   UNL     1       1.562   8.965  -3.302  1.00  0.00    +0.213 HD
ENDBRANCH  14  16
BRANCH  15  18
ATOM     18  O   UNL     1       2.241  11.775  -3.428  1.00  0.00    -0.385 OA
ATOM     19  H   UNL     1       2.565  12.669  -3.184  1.00  0.00    +0.211 HD
ENDBRANCH  15  18
ENDBRANCH   7   8
ENDBRANCH   1   7
BRANCH   2  20
ATOM     20  O   UNL     1      -3.191  15.550  -2.284  1.00  0.00    -0.385 OA
ATOM     21  H   UNL     1      -2.249  15.752  -2.445  1.00  0.00    +0.211 HD
ENDBRANCH   2  20
BRANCH   3  22
ATOM     22  O   UNL     1      -4.789  15.756  -0.020  1.00  0.00    -0.387 OA
ATOM     23  H   UNL     1      -5.592  15.631   0.528  1.00  0.00    +0.211 HD
ENDBRANCH   3  22
BRANCH   5  24
ATOM     24  C   UNL     1      -2.377  11.941   0.807  1.00  0.00    +0.220 C 
BRANCH  24  25
ATOM     25  O   UNL     1      -2.615  11.330   2.073  1.00  0.00    -0.245 OA
BRANCH  25  26
ATOM     26  S   UNL     1      -1.785  11.888   3.351  1.00  0.00    +0.397 S 
ATOM     27  O   UNL     1      -2.519  11.627   4.568  1.00  0.00    -0.169 OA
ATOM     28  O   UNL     1      -1.276  13.201   3.024  1.00  0.00    -0.169 OA
BRANCH  26  29
ATOM     29  O   UNL     1      -0.488  10.934   3.348  1.00  0.00    -0.264 OA
ATOM     30  H   UNL     1      -0.148  10.917   2.431  1.00  0.00    +0.236 HD
ENDBRANCH  26  29
ENDBRANCH  25  26
ENDBRANCH  24  25
ENDBRANCH   5  24
BRANCH   4  31
ATOM     31  O   UNL     1      -3.969  13.994   1.693  1.00  0.00    -0.387 OA
ATOM     32  H   UNL     1      -3.463  14.778   1.382  1.00  0.00    +0.211 HD
ENDBRANCH   4  31
TORSDOF 11
ENDMDL
