MODEL 1
REMARK VINA RESULT:    -6.747      0.000      0.000
REMARK INTER + INTRA:         -15.765
REMARK INTER:                 -12.860
REMARK INTRA:                  -2.905
REMARK UNBOUND:                -2.905
REMARK SMILES C[C@H](NC(=O)CCC(=O)O)C(=O)N[C@@H](C)C(=O)N1CCC[C@@H]1C(=O)N[C@H](Cc1ccccc1)C(=O)Nc1ccc([N+](=O)[O-])cc1
REMARK SMILES IDX 14 1 15 2 13 3 11 4 12 5 2 7 1 8 3 9 4 10 5 11 6 13 7 14
REMARK SMILES IDX 8 15 9 16 10 17 16 19 17 20 18 21 19 22 22 23 20 24 21 25
REMARK SMILES IDX 23 26 24 27 25 28 26 30 27 31 28 32 29 33 33 34 30 35 32 36
REMARK SMILES IDX 31 37 34 38 35 39 36 40 37 42 38 43 45 44 39 45 44 46 40 47
REMARK SMILES IDX 41 48 42 49 43 50
REMARK H PARENT 13 6 3 12 10 18 25 29 36 41
ROOT
ATOM      1  C   UNL     1      -1.075 -12.621  -4.346  1.00  0.00    +0.168 C 
ATOM      2  C   UNL     1      -1.243 -13.392  -3.041  1.00  0.00    +0.041 C 
ENDROOT
BRANCH   1   3
ATOM      3  N   UNL     1      -2.171 -12.917  -5.261  1.00  0.00    -0.343 N 
ATOM      4  C   UNL     1      -2.876 -11.945  -5.935  1.00  0.00    +0.242 C 
ATOM      5  O   UNL     1      -2.640 -10.748  -5.798  1.00  0.00    -0.273 OA
ATOM      6  H   UNL     1      -2.297 -13.889  -5.537  1.00  0.00    +0.164 HD
BRANCH   4   7
ATOM      7  C   UNL     1      -3.879 -12.508  -6.962  1.00  0.00    +0.168 C 
ATOM      8  C   UNL     1      -3.258 -12.601  -8.349  1.00  0.00    +0.041 C 
BRANCH   7   9
ATOM      9  N   UNL     1      -5.093 -11.687  -6.982  1.00  0.00    -0.345 N 
ATOM     10  C   UNL     1      -6.335 -12.235  -6.760  1.00  0.00    +0.221 C 
ATOM     11  O   UNL     1      -6.509 -13.400  -6.423  1.00  0.00    -0.275 OA
ATOM     12  H   UNL     1      -5.032 -10.782  -7.433  1.00  0.00    +0.164 HD
BRANCH  10  13
ATOM     13  C   UNL     1      -7.463 -11.235  -6.920  1.00  0.00    +0.111 C 
BRANCH  13  14
ATOM     14  C   UNL     1      -8.234 -11.457  -8.215  1.00  0.00    +0.132 C 
BRANCH  14  15
ATOM     15  C   UNL     1      -9.458 -12.296  -7.972  1.00  0.00    +0.303 C 
ATOM     16  O   UNL     1     -10.581 -11.897  -7.716  1.00  0.00    -0.252 OA
BRANCH  15  17
ATOM     17  O   UNL     1      -9.188 -13.614  -8.013  1.00  0.00    -0.481 OA
ATOM     18  H   UNL     1      -8.214 -13.655  -8.121  1.00  0.00    +0.296 HD
ENDBRANCH  15  17
ENDBRANCH  14  15
ENDBRANCH  13  14
ENDBRANCH  10  13
ENDBRANCH   7   9
ENDBRANCH   4   7
ENDBRANCH   1   3
BRANCH   1  19
ATOM     19  C   UNL     1       0.232 -13.039  -5.050  1.00  0.00    +0.245 C 
ATOM     20  O   UNL     1       0.842 -12.236  -5.766  1.00  0.00    -0.272 OA
BRANCH  19  21
ATOM     21  N   UNL     1       0.673 -14.332  -4.890  1.00  0.00    -0.329 N 
ATOM     22  C   UNL     1       1.585 -14.848  -3.880  1.00  0.00    +0.120 C 
ATOM     23  C   UNL     1       0.306 -15.364  -5.853  1.00  0.00    +0.174 C 
ATOM     24  C   UNL     1       1.884 -16.278  -4.312  1.00  0.00    +0.024 C 
ATOM     25  C   UNL     1       0.660 -16.666  -5.137  1.00  0.00    +0.037 C 
BRANCH  23  26
ATOM     26  C   UNL     1       1.116 -15.233  -7.163  1.00  0.00    +0.243 C 
ATOM     27  O   UNL     1       0.793 -15.772  -8.220  1.00  0.00    -0.273 OA
ATOM     28  N   UNL     1       2.219 -14.402  -7.059  1.00  0.00    -0.342 N 
ATOM     29  H   UNL     1       2.203 -13.726  -6.303  1.00  0.00    +0.164 HD
BRANCH  28  30
ATOM     30  C   UNL     1       2.917 -13.960  -8.269  1.00  0.00    +0.176 C 
BRANCH  30  31
ATOM     31  C   UNL     1       4.430 -13.879  -8.017  1.00  0.00    +0.070 C 
BRANCH  31  32
ATOM     32  C   UNL     1       4.789 -13.840  -6.550  1.00  0.00    -0.045 A 
ATOM     33  C   UNL     1       4.815 -12.623  -5.855  1.00  0.00    +0.004 A 
ATOM     34  C   UNL     1       5.137 -15.018  -5.875  1.00  0.00    +0.004 A 
ATOM     35  C   UNL     1       5.194 -12.585  -4.512  1.00  0.00    +0.000 A 
ATOM     36  C   UNL     1       5.515 -14.977  -4.532  1.00  0.00    +0.000 A 
ATOM     37  C   UNL     1       5.545 -13.761  -3.853  1.00  0.00    +0.000 A 
ENDBRANCH  31  32
ENDBRANCH  30  31
BRANCH  30  38
ATOM     38  C   UNL     1       2.347 -12.567  -8.633  1.00  0.00    +0.247 C 
ATOM     39  O   UNL     1       3.087 -11.585  -8.689  1.00  0.00    -0.272 OA
ATOM     40  N   UNL     1       0.993 -12.586  -8.922  1.00  0.00    -0.324 N 
ATOM     41  H   UNL     1       0.535 -13.491  -8.883  1.00  0.00    +0.170 HD
BRANCH  40  42
ATOM     42  C   UNL     1       0.180 -11.508  -9.321  1.00  0.00    +0.041 A 
ATOM     43  C   UNL     1      -0.215 -11.272 -10.641  1.00  0.00    +0.033 A 
ATOM     44  C   UNL     1      -0.248 -10.630  -8.315  1.00  0.00    +0.033 A 
ATOM     45  C   UNL     1      -1.028 -10.177 -10.958  1.00  0.00    +0.088 A 
ATOM     46  C   UNL     1      -1.061  -9.532  -8.618  1.00  0.00    +0.088 A 
ATOM     47  C   UNL     1      -1.448  -9.310  -9.944  1.00  0.00    +0.269 A 
BRANCH  47  48
ATOM     48  N   UNL     1      -2.302  -8.161 -10.271  1.00  0.00    +0.062 N 
ATOM     49  O   UNL     1      -2.268  -7.183  -9.511  1.00  0.00    -0.258 OA
ATOM     50  O   UNL     1      -3.009  -8.239 -11.287  1.00  0.00    -0.258 OA
ENDBRANCH  47  48
ENDBRANCH  40  42
ENDBRANCH  30  38
ENDBRANCH  28  30
ENDBRANCH  23  26
ENDBRANCH  19  21
ENDBRANCH   1  19
TORSDOF 16
ENDMDL
MODEL 2
REMARK VINA RESULT:    -6.717      3.168      7.580
REMARK INTER + INTRA:         -15.708
REMARK INTER:                 -11.746
REMARK INTRA:                  -3.962
REMARK UNBOUND:                -2.905
REMARK SMILES C[C@H](NC(=O)CCC(=O)O)C(=O)N[C@@H](C)C(=O)N1CCC[C@@H]1C(=O)N[C@H](Cc1ccccc1)C(=O)Nc1ccc([N+](=O)[O-])cc1
REMARK SMILES IDX 14 1 15 2 13 3 11 4 12 5 2 7 1 8 3 9 4 10 5 11 6 13 7 14
REMARK SMILES IDX 8 15 9 16 10 17 16 19 17 20 18 21 19 22 22 23 20 24 21 25
REMARK SMILES IDX 23 26 24 27 25 28 26 30 27 31 28 32 29 33 33 34 30 35 32 36
REMARK SMILES IDX 31 37 34 38 35 39 36 40 37 42 38 43 45 44 39 45 44 46 40 47
REMARK SMILES IDX 41 48 42 49 43 50
REMARK H PARENT 13 6 3 12 10 18 25 29 36 41
ROOT
ATOM      1  C   UNL     1      -2.938 -14.275 -10.375  1.00  0.00    +0.168 C 
ATOM      2  C   UNL     1      -4.244 -13.665  -9.877  1.00  0.00    +0.041 C 
ENDROOT
BRANCH   1   3
ATOM      3  N   UNL     1      -2.182 -14.846  -9.266  1.00  0.00    -0.343 N 
ATOM      4  C   UNL     1      -2.126 -16.197  -9.006  1.00  0.00    +0.242 C 
ATOM      5  O   UNL     1      -2.727 -17.023  -9.687  1.00  0.00    -0.273 OA
ATOM      6  H   UNL     1      -1.536 -14.229  -8.776  1.00  0.00    +0.164 HD
BRANCH   4   7
ATOM      7  C   UNL     1      -1.139 -16.570  -7.881  1.00  0.00    +0.168 C 
ATOM      8  C   UNL     1      -1.284 -18.031  -7.478  1.00  0.00    +0.041 C 
BRANCH   7   9
ATOM      9  N   UNL     1      -1.332 -15.684  -6.729  1.00  0.00    -0.345 N 
ATOM     10  C   UNL     1      -0.316 -14.888  -6.256  1.00  0.00    +0.221 C 
ATOM     11  O   UNL     1       0.768 -14.773  -6.816  1.00  0.00    -0.275 OA
ATOM     12  H   UNL     1      -2.124 -15.876  -6.126  1.00  0.00    +0.164 HD
BRANCH  10  13
ATOM     13  C   UNL     1      -0.693 -14.124  -5.003  1.00  0.00    +0.111 C 
BRANCH  13  14
ATOM     14  C   UNL     1       0.033 -12.787  -4.917  1.00  0.00    +0.132 C 
BRANCH  14  15
ATOM     15  C   UNL     1      -0.881 -11.655  -5.294  1.00  0.00    +0.303 C 
ATOM     16  O   UNL     1      -2.098 -11.686  -5.363  1.00  0.00    -0.252 OA
BRANCH  15  17
ATOM     17  O   UNL     1      -0.201 -10.540  -5.621  1.00  0.00    -0.481 OA
ATOM     18  H   UNL     1      -0.886  -9.840  -5.645  1.00  0.00    +0.296 HD
ENDBRANCH  15  17
ENDBRANCH  14  15
ENDBRANCH  13  14
ENDBRANCH  10  13
ENDBRANCH   7   9
ENDBRANCH   4   7
ENDBRANCH   1   3
BRANCH   1  19
ATOM     19  C   UNL     1      -2.052 -13.190 -11.019  1.00  0.00    +0.245 C 
ATOM     20  O   UNL     1      -1.368 -13.450 -12.017  1.00  0.00    -0.272 OA
BRANCH  19  21
ATOM     21  N   UNL     1      -2.016 -11.946 -10.433  1.00  0.00    -0.329 N 
ATOM     22  C   UNL     1      -2.570 -10.701 -10.942  1.00  0.00    +0.120 C 
ATOM     23  C   UNL     1      -1.279 -11.735  -9.192  1.00  0.00    +0.174 C 
ATOM     24  C   UNL     1      -2.048  -9.623  -9.999  1.00  0.00    +0.024 C 
ATOM     25  C   UNL     1      -1.787 -10.380  -8.700  1.00  0.00    +0.037 C 
BRANCH  23  26
ATOM     26  C   UNL     1       0.246 -11.679  -9.440  1.00  0.00    +0.243 C 
ATOM     27  O   UNL     1       0.750 -11.348 -10.511  1.00  0.00    -0.273 OA
ATOM     28  N   UNL     1       1.007 -11.984  -8.324  1.00  0.00    -0.342 N 
ATOM     29  H   UNL     1       0.550 -11.877  -7.425  1.00  0.00    +0.164 HD
BRANCH  28  30
ATOM     30  C   UNL     1       2.445 -11.706  -8.323  1.00  0.00    +0.176 C 
BRANCH  30  31
ATOM     31  C   UNL     1       3.181 -12.676  -9.258  1.00  0.00    +0.070 C 
BRANCH  31  32
ATOM     32  C   UNL     1       4.200 -11.994 -10.143  1.00  0.00    -0.045 A 
ATOM     33  C   UNL     1       5.110 -11.075  -9.604  1.00  0.00    +0.004 A 
ATOM     34  C   UNL     1       4.221 -12.246 -11.522  1.00  0.00    +0.004 A 
ATOM     35  C   UNL     1       6.017 -10.412 -10.432  1.00  0.00    +0.000 A 
ATOM     36  C   UNL     1       5.129 -11.582 -12.347  1.00  0.00    +0.000 A 
ATOM     37  C   UNL     1       6.024 -10.664 -11.802  1.00  0.00    +0.000 A 
ENDBRANCH  31  32
ENDBRANCH  30  31
BRANCH  30  38
ATOM     38  C   UNL     1       2.934 -11.877  -6.863  1.00  0.00    +0.247 C 
ATOM     39  O   UNL     1       2.782 -10.970  -6.044  1.00  0.00    -0.272 OA
ATOM     40  N   UNL     1       3.476 -13.124  -6.607  1.00  0.00    -0.324 N 
ATOM     41  H   UNL     1       3.478 -13.783  -7.380  1.00  0.00    +0.170 HD
BRANCH  40  42
ATOM     42  C   UNL     1       3.974 -13.616  -5.385  1.00  0.00    +0.041 A 
ATOM     43  C   UNL     1       3.232 -14.394  -4.493  1.00  0.00    +0.033 A 
ATOM     44  C   UNL     1       5.301 -13.292  -5.066  1.00  0.00    +0.033 A 
ATOM     45  C   UNL     1       3.801 -14.847  -3.296  1.00  0.00    +0.088 A 
ATOM     46  C   UNL     1       5.882 -13.739  -3.874  1.00  0.00    +0.088 A 
ATOM     47  C   UNL     1       5.126 -14.517  -2.991  1.00  0.00    +0.269 A 
BRANCH  47  48
ATOM     48  N   UNL     1       5.728 -14.992  -1.739  1.00  0.00    +0.062 N 
ATOM     49  O   UNL     1       5.109 -14.779  -0.687  1.00  0.00    -0.258 OA
ATOM     50  O   UNL     1       6.819 -15.574  -1.808  1.00  0.00    -0.258 OA
ENDBRANCH  47  48
ENDBRANCH  40  42
ENDBRANCH  30  38
ENDBRANCH  28  30
ENDBRANCH  23  26
ENDBRANCH  19  21
ENDBRANCH   1  19
TORSDOF 16
ENDMDL
MODEL 3
REMARK VINA RESULT:    -6.516      2.752      7.267
REMARK INTER + INTRA:         -15.326
REMARK INTER:                 -11.295
REMARK INTRA:                  -4.031
REMARK UNBOUND:                -2.905
REMARK SMILES C[C@H](NC(=O)CCC(=O)O)C(=O)N[C@@H](C)C(=O)N1CCC[C@@H]1C(=O)N[C@H](Cc1ccccc1)C(=O)Nc1ccc([N+](=O)[O-])cc1
REMARK SMILES IDX 14 1 15 2 13 3 11 4 12 5 2 7 1 8 3 9 4 10 5 11 6 13 7 14
REMARK SMILES IDX 8 15 9 16 10 17 16 19 17 20 18 21 19 22 22 23 20 24 21 25
REMARK SMILES IDX 23 26 24 27 25 28 26 30 27 31 28 32 29 33 33 34 30 35 32 36
REMARK SMILES IDX 31 37 34 38 35 39 36 40 37 42 38 43 45 44 39 45 44 46 40 47
REMARK SMILES IDX 41 48 42 49 43 50
REMARK H PARENT 13 6 3 12 10 18 25 29 36 41
ROOT
ATOM      1  C   UNL     1       2.169 -13.996  -7.044  1.00  0.00    +0.168 C 
ATOM      2  C   UNL     1       3.376 -14.075  -6.115  1.00  0.00    +0.041 C 
ENDROOT
BRANCH   1   3
ATOM      3  N   UNL     1       1.439 -12.751  -6.830  1.00  0.00    -0.343 N 
ATOM      4  C   UNL     1       1.212 -11.828  -7.826  1.00  0.00    +0.242 C 
ATOM      5  O   UNL     1       1.627 -11.981  -8.971  1.00  0.00    -0.273 OA
ATOM      6  H   UNL     1       0.933 -12.654  -5.951  1.00  0.00    +0.164 HD
BRANCH   4   7
ATOM      7  C   UNL     1       0.284 -10.672  -7.398  1.00  0.00    +0.168 C 
ATOM      8  C   UNL     1      -0.559 -11.057  -6.190  1.00  0.00    +0.041 C 
BRANCH   7   9
ATOM      9  N   UNL     1      -0.562 -10.265  -8.523  1.00  0.00    -0.345 N 
ATOM     10  C   UNL     1      -1.126  -9.011  -8.582  1.00  0.00    +0.221 C 
ATOM     11  O   UNL     1      -0.877  -8.121  -7.778  1.00  0.00    -0.275 OA
ATOM     12  H   UNL     1      -0.949 -11.002  -9.102  1.00  0.00    +0.164 HD
BRANCH  10  13
ATOM     13  C   UNL     1      -2.042  -8.826  -9.775  1.00  0.00    +0.111 C 
BRANCH  13  14
ATOM     14  C   UNL     1      -1.398  -9.324 -11.063  1.00  0.00    +0.132 C 
BRANCH  14  15
ATOM     15  C   UNL     1      -2.256  -8.995 -12.253  1.00  0.00    +0.303 C 
ATOM     16  O   UNL     1      -3.471  -8.905 -12.279  1.00  0.00    -0.252 OA
BRANCH  15  17
ATOM     17  O   UNL     1      -1.530  -8.848 -13.378  1.00  0.00    -0.481 OA
ATOM     18  H   UNL     1      -2.149  -8.424 -14.008  1.00  0.00    +0.296 HD
ENDBRANCH  15  17
ENDBRANCH  14  15
ENDBRANCH  13  14
ENDBRANCH  10  13
ENDBRANCH   7   9
ENDBRANCH   4   7
ENDBRANCH   1   3
BRANCH   1  19
ATOM     19  C   UNL     1       1.192 -15.153  -6.753  1.00  0.00    +0.245 C 
ATOM     20  O   UNL     1       1.190 -15.707  -5.647  1.00  0.00    -0.272 OA
BRANCH  19  21
ATOM     21  N   UNL     1       0.358 -15.571  -7.763  1.00  0.00    -0.329 N 
ATOM     22  C   UNL     1       0.618 -15.572  -9.195  1.00  0.00    +0.120 C 
ATOM     23  C   UNL     1      -1.004 -16.000  -7.468  1.00  0.00    +0.174 C 
ATOM     24  C   UNL     1      -0.717 -15.928  -9.838  1.00  0.00    +0.024 C 
ATOM     25  C   UNL     1      -1.441 -16.713  -8.747  1.00  0.00    +0.037 C 
BRANCH  23  26
ATOM     26  C   UNL     1      -1.929 -14.795  -7.182  1.00  0.00    +0.243 C 
ATOM     27  O   UNL     1      -1.565 -13.784  -6.584  1.00  0.00    -0.273 OA
ATOM     28  N   UNL     1      -3.202 -14.926  -7.711  1.00  0.00    -0.342 N 
ATOM     29  H   UNL     1      -3.304 -15.581  -8.479  1.00  0.00    +0.164 HD
BRANCH  28  30
ATOM     30  C   UNL     1      -4.094 -13.765  -7.766  1.00  0.00    +0.176 C 
BRANCH  30  31
ATOM     31  C   UNL     1      -5.551 -14.215  -7.950  1.00  0.00    +0.070 C 
BRANCH  31  32
ATOM     32  C   UNL     1      -6.542 -13.079  -7.854  1.00  0.00    -0.045 A 
ATOM     33  C   UNL     1      -6.346 -12.038  -6.938  1.00  0.00    +0.004 A 
ATOM     34  C   UNL     1      -7.693 -13.074  -8.656  1.00  0.00    +0.004 A 
ATOM     35  C   UNL     1      -7.288 -11.015  -6.817  1.00  0.00    +0.000 A 
ATOM     36  C   UNL     1      -8.633 -12.050  -8.534  1.00  0.00    +0.000 A 
ATOM     37  C   UNL     1      -8.432 -11.023  -7.614  1.00  0.00    +0.000 A 
ENDBRANCH  31  32
ENDBRANCH  30  31
BRANCH  30  38
ATOM     38  C   UNL     1      -3.632 -12.901  -8.964  1.00  0.00    +0.247 C 
ATOM     39  O   UNL     1      -3.161 -11.778  -8.779  1.00  0.00    -0.272 OA
ATOM     40  N   UNL     1      -3.759 -13.541 -10.185  1.00  0.00    -0.324 N 
ATOM     41  H   UNL     1      -4.116 -14.491 -10.162  1.00  0.00    +0.170 HD
BRANCH  40  42
ATOM     42  C   UNL     1      -3.399 -13.055 -11.457  1.00  0.00    +0.041 A 
ATOM     43  C   UNL     1      -4.297 -12.477 -12.358  1.00  0.00    +0.033 A 
ATOM     44  C   UNL     1      -2.049 -13.171 -11.820  1.00  0.00    +0.033 A 
ATOM     45  C   UNL     1      -3.859 -12.017 -13.606  1.00  0.00    +0.088 A 
ATOM     46  C   UNL     1      -1.599 -12.714 -13.064  1.00  0.00    +0.088 A 
ATOM     47  C   UNL     1      -2.510 -12.137 -13.954  1.00  0.00    +0.269 A 
BRANCH  47  48
ATOM     48  N   UNL     1      -2.047 -11.653 -15.261  1.00  0.00    +0.062 N 
ATOM     49  O   UNL     1      -2.460 -10.550 -15.645  1.00  0.00    -0.258 OA
ATOM     50  O   UNL     1      -1.272 -12.377 -15.903  1.00  0.00    -0.258 OA
ENDBRANCH  47  48
ENDBRANCH  40  42
ENDBRANCH  30  38
ENDBRANCH  28  30
ENDBRANCH  23  26
ENDBRANCH  19  21
ENDBRANCH   1  19
TORSDOF 16
ENDMDL
MODEL 4
REMARK VINA RESULT:    -6.489      2.978      7.613
REMARK INTER + INTRA:         -15.274
REMARK INTER:                 -12.137
REMARK INTRA:                  -3.137
REMARK UNBOUND:                -2.905
REMARK SMILES C[C@H](NC(=O)CCC(=O)O)C(=O)N[C@@H](C)C(=O)N1CCC[C@@H]1C(=O)N[C@H](Cc1ccccc1)C(=O)Nc1ccc([N+](=O)[O-])cc1
REMARK SMILES IDX 14 1 15 2 13 3 11 4 12 5 2 7 1 8 3 9 4 10 5 11 6 13 7 14
REMARK SMILES IDX 8 15 9 16 10 17 16 19 17 20 18 21 19 22 22 23 20 24 21 25
REMARK SMILES IDX 23 26 24 27 25 28 26 30 27 31 28 32 29 33 33 34 30 35 32 36
REMARK SMILES IDX 31 37 34 38 35 39 36 40 37 42 38 43 45 44 39 45 44 46 40 47
REMARK SMILES IDX 41 48 42 49 43 50
REMARK H PARENT 13 6 3 12 10 18 25 29 36 41
ROOT
ATOM      1  C   UNL     1       0.744 -15.327  -7.893  1.00  0.00    +0.168 C 
ATOM      2  C   UNL     1       1.936 -15.535  -6.966  1.00  0.00    +0.041 C 
ENDROOT
BRANCH   1   3
ATOM      3  N   UNL     1       0.942 -14.147  -8.727  1.00  0.00    -0.343 N 
ATOM      4  C   UNL     1       1.175 -14.211 -10.082  1.00  0.00    +0.242 C 
ATOM      5  O   UNL     1       1.251 -15.276 -10.688  1.00  0.00    -0.273 OA
ATOM      6  H   UNL     1       0.725 -13.243  -8.312  1.00  0.00    +0.164 HD
BRANCH   4   7
ATOM      7  C   UNL     1       1.195 -12.831 -10.772  1.00  0.00    +0.168 C 
ATOM      8  C   UNL     1       2.614 -12.293 -10.894  1.00  0.00    +0.041 C 
BRANCH   7   9
ATOM      9  N   UNL     1       0.336 -11.893 -10.043  1.00  0.00    -0.345 N 
ATOM     10  C   UNL     1      -0.288 -10.845 -10.680  1.00  0.00    +0.221 C 
ATOM     11  O   UNL     1      -0.268 -10.686 -11.894  1.00  0.00    -0.275 OA
ATOM     12  H   UNL     1       0.436 -11.862  -9.035  1.00  0.00    +0.164 HD
BRANCH  10  13
ATOM     13  C   UNL     1      -1.048  -9.940  -9.731  1.00  0.00    +0.111 C 
BRANCH  13  14
ATOM     14  C   UNL     1      -1.447  -8.631 -10.400  1.00  0.00    +0.132 C 
BRANCH  14  15
ATOM     15  C   UNL     1      -1.379  -7.489  -9.425  1.00  0.00    +0.303 C 
ATOM     16  O   UNL     1      -2.255  -6.677  -9.182  1.00  0.00    -0.252 OA
BRANCH  15  17
ATOM     17  O   UNL     1      -0.171  -7.395  -8.836  1.00  0.00    -0.481 OA
ATOM     18  H   UNL     1       0.388  -8.027  -9.335  1.00  0.00    +0.296 HD
ENDBRANCH  15  17
ENDBRANCH  14  15
ENDBRANCH  13  14
ENDBRANCH  10  13
ENDBRANCH   7   9
ENDBRANCH   4   7
ENDBRANCH   1   3
BRANCH   1  19
ATOM     19  C   UNL     1      -0.540 -15.094  -7.071  1.00  0.00    +0.245 C 
ATOM     20  O   UNL     1      -1.533 -15.810  -7.243  1.00  0.00    -0.272 OA
BRANCH  19  21
ATOM     21  N   UNL     1      -0.559 -14.050  -6.176  1.00  0.00    -0.329 N 
ATOM     22  C   UNL     1      -0.621 -14.117  -4.724  1.00  0.00    +0.120 C 
ATOM     23  C   UNL     1      -0.614 -12.671  -6.649  1.00  0.00    +0.174 C 
ATOM     24  C   UNL     1      -0.835 -12.678  -4.271  1.00  0.00    +0.024 C 
ATOM     25  C   UNL     1      -0.247 -11.852  -5.412  1.00  0.00    +0.037 C 
BRANCH  23  26
ATOM     26  C   UNL     1      -2.031 -12.296  -7.140  1.00  0.00    +0.243 C 
ATOM     27  O   UNL     1      -2.687 -11.364  -6.678  1.00  0.00    -0.273 OA
ATOM     28  N   UNL     1      -2.483 -13.071  -8.194  1.00  0.00    -0.342 N 
ATOM     29  H   UNL     1      -1.772 -13.541  -8.743  1.00  0.00    +0.164 HD
BRANCH  28  30
ATOM     30  C   UNL     1      -3.673 -12.662  -8.944  1.00  0.00    +0.176 C 
BRANCH  30  31
ATOM     31  C   UNL     1      -4.816 -13.665  -8.726  1.00  0.00    +0.070 C 
BRANCH  31  32
ATOM     32  C   UNL     1      -6.084 -13.021  -8.213  1.00  0.00    -0.045 A 
ATOM     33  C   UNL     1      -6.067 -12.245  -7.046  1.00  0.00    +0.004 A 
ATOM     34  C   UNL     1      -7.300 -13.225  -8.879  1.00  0.00    +0.004 A 
ATOM     35  C   UNL     1      -7.249 -11.692  -6.549  1.00  0.00    +0.000 A 
ATOM     36  C   UNL     1      -8.480 -12.670  -8.380  1.00  0.00    +0.000 A 
ATOM     37  C   UNL     1      -8.454 -11.907  -7.215  1.00  0.00    +0.000 A 
ENDBRANCH  31  32
ENDBRANCH  30  31
BRANCH  30  38
ATOM     38  C   UNL     1      -3.267 -12.612 -10.438  1.00  0.00    +0.247 C 
ATOM     39  O   UNL     1      -2.457 -13.420 -10.892  1.00  0.00    -0.272 OA
ATOM     40  N   UNL     1      -3.937 -11.636 -11.156  1.00  0.00    -0.324 N 
ATOM     41  H   UNL     1      -4.618 -11.085 -10.644  1.00  0.00    +0.170 HD
BRANCH  40  42
ATOM     42  C   UNL     1      -3.831 -11.351 -12.531  1.00  0.00    +0.041 A 
ATOM     43  C   UNL     1      -3.582 -10.077 -13.050  1.00  0.00    +0.033 A 
ATOM     44  C   UNL     1      -3.990 -12.428 -13.416  1.00  0.00    +0.033 A 
ATOM     45  C   UNL     1      -3.490  -9.874 -14.432  1.00  0.00    +0.088 A 
ATOM     46  C   UNL     1      -3.899 -12.239 -14.800  1.00  0.00    +0.088 A 
ATOM     47  C   UNL     1      -3.649 -10.958 -15.303  1.00  0.00    +0.269 A 
BRANCH  47  48
ATOM     48  N   UNL     1      -3.550 -10.750 -16.753  1.00  0.00    +0.062 N 
ATOM     49  O   UNL     1      -3.130  -9.654 -17.150  1.00  0.00    -0.258 OA
ATOM     50  O   UNL     1      -3.896 -11.681 -17.494  1.00  0.00    -0.258 OA
ENDBRANCH  47  48
ENDBRANCH  40  42
ENDBRANCH  30  38
ENDBRANCH  28  30
ENDBRANCH  23  26
ENDBRANCH  19  21
ENDBRANCH   1  19
TORSDOF 16
ENDMDL
MODEL 5
REMARK VINA RESULT:    -6.442      3.562      5.986
REMARK INTER + INTRA:         -15.185
REMARK INTER:                 -12.840
REMARK INTRA:                  -2.345
REMARK UNBOUND:                -2.905
REMARK SMILES C[C@H](NC(=O)CCC(=O)O)C(=O)N[C@@H](C)C(=O)N1CCC[C@@H]1C(=O)N[C@H](Cc1ccccc1)C(=O)Nc1ccc([N+](=O)[O-])cc1
REMARK SMILES IDX 14 1 15 2 13 3 11 4 12 5 2 7 1 8 3 9 4 10 5 11 6 13 7 14
REMARK SMILES IDX 8 15 9 16 10 17 16 19 17 20 18 21 19 22 22 23 20 24 21 25
REMARK SMILES IDX 23 26 24 27 25 28 26 30 27 31 28 32 29 33 33 34 30 35 32 36
REMARK SMILES IDX 31 37 34 38 35 39 36 40 37 42 38 43 45 44 39 45 44 46 40 47
REMARK SMILES IDX 41 48 42 49 43 50
REMARK H PARENT 13 6 3 12 10 18 25 29 36 41
ROOT
ATOM      1  C   UNL     1       0.124 -12.173  -8.682  1.00  0.00    +0.168 C 
ATOM      2  C   UNL     1       1.052 -13.118  -9.438  1.00  0.00    +0.041 C 
ENDROOT
BRANCH   1   3
ATOM      3  N   UNL     1      -0.027 -10.915  -9.405  1.00  0.00    -0.343 N 
ATOM      4  C   UNL     1      -1.060 -10.033  -9.180  1.00  0.00    +0.242 C 
ATOM      5  O   UNL     1      -1.945 -10.254  -8.358  1.00  0.00    -0.273 OA
ATOM      6  H   UNL     1       0.761 -10.608  -9.972  1.00  0.00    +0.164 HD
BRANCH   4   7
ATOM      7  C   UNL     1      -0.919  -8.705  -9.951  1.00  0.00    +0.168 C 
ATOM      8  C   UNL     1      -2.016  -7.722  -9.567  1.00  0.00    +0.041 C 
BRANCH   7   9
ATOM      9  N   UNL     1      -0.919  -8.959 -11.394  1.00  0.00    -0.345 N 
ATOM     10  C   UNL     1      -2.053  -9.380 -12.050  1.00  0.00    +0.221 C 
ATOM     11  O   UNL     1      -3.151  -9.462 -11.513  1.00  0.00    -0.275 OA
ATOM     12  H   UNL     1      -0.019  -9.091 -11.841  1.00  0.00    +0.164 HD
BRANCH  10  13
ATOM     13  C   UNL     1      -1.816  -9.678 -13.517  1.00  0.00    +0.111 C 
BRANCH  13  14
ATOM     14  C   UNL     1      -0.508 -10.428 -13.735  1.00  0.00    +0.132 C 
BRANCH  14  15
ATOM     15  C   UNL     1      -0.680 -11.896 -13.456  1.00  0.00    +0.303 C 
ATOM     16  O   UNL     1      -0.650 -12.806 -14.267  1.00  0.00    -0.252 OA
BRANCH  15  17
ATOM     17  O   UNL     1      -0.938 -12.139 -12.157  1.00  0.00    -0.481 OA
ATOM     18  H   UNL     1      -1.684 -11.539 -11.945  1.00  0.00    +0.296 HD
ENDBRANCH  15  17
ENDBRANCH  14  15
ENDBRANCH  13  14
ENDBRANCH  10  13
ENDBRANCH   7   9
ENDBRANCH   4   7
ENDBRANCH   1   3
BRANCH   1  19
ATOM     19  C   UNL     1       0.715 -11.835  -7.299  1.00  0.00    +0.245 C 
ATOM     20  O   UNL     1       1.734 -11.140  -7.206  1.00  0.00    -0.272 OA
BRANCH  19  21
ATOM     21  N   UNL     1       0.103 -12.357  -6.184  1.00  0.00    -0.329 N 
ATOM     22  C   UNL     1      -0.707 -11.658  -5.197  1.00  0.00    +0.120 C 
ATOM     23  C   UNL     1       0.305 -13.754  -5.814  1.00  0.00    +0.174 C 
ATOM     24  C   UNL     1      -0.935 -12.673  -4.084  1.00  0.00    +0.024 C 
ATOM     25  C   UNL     1      -0.800 -14.018  -4.792  1.00  0.00    +0.037 C 
BRANCH  23  26
ATOM     26  C   UNL     1       1.694 -13.977  -5.175  1.00  0.00    +0.243 C 
ATOM     27  O   UNL     1       1.872 -14.618  -4.141  1.00  0.00    -0.273 OA
ATOM     28  N   UNL     1       2.740 -13.437  -5.904  1.00  0.00    -0.342 N 
ATOM     29  H   UNL     1       2.562 -13.267  -6.887  1.00  0.00    +0.164 HD
BRANCH  28  30
ATOM     30  C   UNL     1       4.121 -13.801  -5.579  1.00  0.00    +0.176 C 
BRANCH  30  31
ATOM     31  C   UNL     1       4.604 -13.031  -4.341  1.00  0.00    +0.070 C 
BRANCH  31  32
ATOM     32  C   UNL     1       5.221 -13.921  -3.288  1.00  0.00    -0.045 A 
ATOM     33  C   UNL     1       6.386 -14.650  -3.563  1.00  0.00    +0.004 A 
ATOM     34  C   UNL     1       4.613 -14.057  -2.032  1.00  0.00    +0.004 A 
ATOM     35  C   UNL     1       6.926 -15.508  -2.604  1.00  0.00    +0.000 A 
ATOM     36  C   UNL     1       5.155 -14.916  -1.075  1.00  0.00    +0.000 A 
ATOM     37  C   UNL     1       6.309 -15.642  -1.362  1.00  0.00    +0.000 A 
ENDBRANCH  31  32
ENDBRANCH  30  31
BRANCH  30  38
ATOM     38  C   UNL     1       4.982 -13.445  -6.816  1.00  0.00    +0.247 C 
ATOM     39  O   UNL     1       6.167 -13.774  -6.868  1.00  0.00    -0.272 OA
ATOM     40  N   UNL     1       4.270 -12.799  -7.813  1.00  0.00    -0.324 N 
ATOM     41  H   UNL     1       3.281 -12.649  -7.637  1.00  0.00    +0.170 HD
BRANCH  40  42
ATOM     42  C   UNL     1       4.737 -12.374  -9.071  1.00  0.00    +0.041 A 
ATOM     43  C   UNL     1       5.118 -11.062  -9.363  1.00  0.00    +0.033 A 
ATOM     44  C   UNL     1       4.816 -13.347 -10.079  1.00  0.00    +0.033 A 
ATOM     45  C   UNL     1       5.574 -10.718 -10.641  1.00  0.00    +0.088 A 
ATOM     46  C   UNL     1       5.271 -13.016 -11.361  1.00  0.00    +0.088 A 
ATOM     47  C   UNL     1       5.649 -11.698 -11.637  1.00  0.00    +0.269 A 
BRANCH  47  48
ATOM     48  N   UNL     1       6.129 -11.343 -12.978  1.00  0.00    +0.062 N 
ATOM     49  O   UNL     1       7.274 -10.878 -13.075  1.00  0.00    -0.258 OA
ATOM     50  O   UNL     1       5.360 -11.524 -13.933  1.00  0.00    -0.258 OA
ENDBRANCH  47  48
ENDBRANCH  40  42
ENDBRANCH  30  38
ENDBRANCH  28  30
ENDBRANCH  23  26
ENDBRANCH  19  21
ENDBRANCH   1  19
TORSDOF 16
ENDMDL
MODEL 6
REMARK VINA RESULT:    -6.435      3.083      5.728
REMARK INTER + INTRA:         -15.172
REMARK INTER:                 -12.329
REMARK INTRA:                  -2.843
REMARK UNBOUND:                -2.905
REMARK SMILES C[C@H](NC(=O)CCC(=O)O)C(=O)N[C@@H](C)C(=O)N1CCC[C@@H]1C(=O)N[C@H](Cc1ccccc1)C(=O)Nc1ccc([N+](=O)[O-])cc1
REMARK SMILES IDX 14 1 15 2 13 3 11 4 12 5 2 7 1 8 3 9 4 10 5 11 6 13 7 14
REMARK SMILES IDX 8 15 9 16 10 17 16 19 17 20 18 21 19 22 22 23 20 24 21 25
REMARK SMILES IDX 23 26 24 27 25 28 26 30 27 31 28 32 29 33 33 34 30 35 32 36
REMARK SMILES IDX 31 37 34 38 35 39 36 40 37 42 38 43 45 44 39 45 44 46 40 47
REMARK SMILES IDX 41 48 42 49 43 50
REMARK H PARENT 13 6 3 12 10 18 25 29 36 41
ROOT
ATOM      1  C   UNL     1       0.679 -12.629  -8.914  1.00  0.00    +0.168 C 
ATOM      2  C   UNL     1       1.616 -12.103  -9.996  1.00  0.00    +0.041 C 
ENDROOT
BRANCH   1   3
ATOM      3  N   UNL     1      -0.673 -12.121  -9.116  1.00  0.00    -0.343 N 
ATOM      4  C   UNL     1      -1.800 -12.902  -8.992  1.00  0.00    +0.242 C 
ATOM      5  O   UNL     1      -1.745 -14.098  -8.717  1.00  0.00    -0.273 OA
ATOM      6  H   UNL     1      -0.786 -11.111  -9.180  1.00  0.00    +0.164 HD
BRANCH   4   7
ATOM      7  C   UNL     1      -3.118 -12.108  -9.096  1.00  0.00    +0.168 C 
ATOM      8  C   UNL     1      -4.196 -12.702  -8.199  1.00  0.00    +0.041 C 
BRANCH   7   9
ATOM      9  N   UNL     1      -3.564 -12.054 -10.491  1.00  0.00    -0.345 N 
ATOM     10  C   UNL     1      -3.156 -11.050 -11.338  1.00  0.00    +0.221 C 
ATOM     11  O   UNL     1      -2.319 -10.208 -11.034  1.00  0.00    -0.275 OA
ATOM     12  H   UNL     1      -4.384 -12.597 -10.735  1.00  0.00    +0.164 HD
BRANCH  10  13
ATOM     13  C   UNL     1      -3.806 -11.124 -12.705  1.00  0.00    +0.111 C 
BRANCH  13  14
ATOM     14  C   UNL     1      -3.948  -9.745 -13.337  1.00  0.00    +0.132 C 
BRANCH  14  15
ATOM     15  C   UNL     1      -3.282  -9.703 -14.685  1.00  0.00    +0.303 C 
ATOM     16  O   UNL     1      -2.232 -10.235 -15.001  1.00  0.00    -0.252 OA
BRANCH  15  17
ATOM     17  O   UNL     1      -3.957  -8.935 -15.561  1.00  0.00    -0.481 OA
ATOM     18  H   UNL     1      -3.772  -8.018 -15.268  1.00  0.00    +0.296 HD
ENDBRANCH  15  17
ENDBRANCH  14  15
ENDBRANCH  13  14
ENDBRANCH  10  13
ENDBRANCH   7   9
ENDBRANCH   4   7
ENDBRANCH   1   3
BRANCH   1  19
ATOM     19  C   UNL     1       1.143 -12.150  -7.524  1.00  0.00    +0.245 C 
ATOM     20  O   UNL     1       2.073 -11.341  -7.418  1.00  0.00    -0.272 OA
BRANCH  19  21
ATOM     21  N   UNL     1       0.522 -12.674  -6.414  1.00  0.00    -0.329 N 
ATOM     22  C   UNL     1      -0.299 -11.977  -5.435  1.00  0.00    +0.120 C 
ATOM     23  C   UNL     1       0.726 -14.069  -6.042  1.00  0.00    +0.174 C 
ATOM     24  C   UNL     1      -0.533 -12.991  -4.323  1.00  0.00    +0.024 C 
ATOM     25  C   UNL     1      -0.386 -14.337  -5.029  1.00  0.00    +0.037 C 
BRANCH  23  26
ATOM     26  C   UNL     1       2.111 -14.287  -5.390  1.00  0.00    +0.243 C 
ATOM     27  O   UNL     1       2.354 -15.194  -4.595  1.00  0.00    -0.273 OA
ATOM     28  N   UNL     1       3.081 -13.400  -5.824  1.00  0.00    -0.342 N 
ATOM     29  H   UNL     1       2.912 -12.950  -6.717  1.00  0.00    +0.164 HD
BRANCH  28  30
ATOM     30  C   UNL     1       4.491 -13.650  -5.514  1.00  0.00    +0.176 C 
BRANCH  30  31
ATOM     31  C   UNL     1       4.868 -13.011  -4.170  1.00  0.00    +0.070 C 
BRANCH  31  32
ATOM     32  C   UNL     1       5.372 -14.011  -3.155  1.00  0.00    -0.045 A 
ATOM     33  C   UNL     1       6.523 -14.768  -3.412  1.00  0.00    +0.004 A 
ATOM     34  C   UNL     1       4.671 -14.220  -1.959  1.00  0.00    +0.004 A 
ATOM     35  C   UNL     1       6.958 -15.725  -2.493  1.00  0.00    +0.000 A 
ATOM     36  C   UNL     1       5.109 -15.177  -1.042  1.00  0.00    +0.000 A 
ATOM     37  C   UNL     1       6.249 -15.930  -1.311  1.00  0.00    +0.000 A 
ENDBRANCH  31  32
ENDBRANCH  30  31
BRANCH  30  38
ATOM     38  C   UNL     1       5.319 -13.031  -6.667  1.00  0.00    +0.247 C 
ATOM     39  O   UNL     1       6.498 -12.721  -6.491  1.00  0.00    -0.272 OA
ATOM     40  N   UNL     1       4.619 -12.933  -7.856  1.00  0.00    -0.324 N 
ATOM     41  H   UNL     1       3.666 -13.285  -7.851  1.00  0.00    +0.170 HD
BRANCH  40  42
ATOM     42  C   UNL     1       5.084 -12.455  -9.097  1.00  0.00    +0.041 A 
ATOM     43  C   UNL     1       5.161 -11.102  -9.436  1.00  0.00    +0.033 A 
ATOM     44  C   UNL     1       5.489 -13.417 -10.034  1.00  0.00    +0.033 A 
ATOM     45  C   UNL     1       5.637 -10.706 -10.692  1.00  0.00    +0.088 A 
ATOM     46  C   UNL     1       5.968 -13.034 -11.293  1.00  0.00    +0.088 A 
ATOM     47  C   UNL     1       6.040 -11.676 -11.617  1.00  0.00    +0.269 A 
BRANCH  47  48
ATOM     48  N   UNL     1       6.542 -11.265 -12.934  1.00  0.00    +0.062 N 
ATOM     49  O   UNL     1       7.740 -10.961 -13.023  1.00  0.00    -0.258 OA
ATOM     50  O   UNL     1       5.738 -11.243 -13.876  1.00  0.00    -0.258 OA
ENDBRANCH  47  48
ENDBRANCH  40  42
ENDBRANCH  30  38
ENDBRANCH  28  30
ENDBRANCH  23  26
ENDBRANCH  19  21
ENDBRANCH   1  19
TORSDOF 16
ENDMDL
MODEL 7
REMARK VINA RESULT:    -6.335      3.132      5.647
REMARK INTER + INTRA:         -14.980
REMARK INTER:                 -13.177
REMARK INTRA:                  -1.803
REMARK UNBOUND:                -2.905
REMARK SMILES C[C@H](NC(=O)CCC(=O)O)C(=O)N[C@@H](C)C(=O)N1CCC[C@@H]1C(=O)N[C@H](Cc1ccccc1)C(=O)Nc1ccc([N+](=O)[O-])cc1
REMARK SMILES IDX 14 1 15 2 13 3 11 4 12 5 2 7 1 8 3 9 4 10 5 11 6 13 7 14
REMARK SMILES IDX 8 15 9 16 10 17 16 19 17 20 18 21 19 22 22 23 20 24 21 25
REMARK SMILES IDX 23 26 24 27 25 28 26 30 27 31 28 32 29 33 33 34 30 35 32 36
REMARK SMILES IDX 31 37 34 38 35 39 36 40 37 42 38 43 45 44 39 45 44 46 40 47
REMARK SMILES IDX 41 48 42 49 43 50
REMARK H PARENT 13 6 3 12 10 18 25 29 36 41
ROOT
ATOM      1  C   UNL     1      -0.815 -12.947  -4.623  1.00  0.00    +0.168 C 
ATOM      2  C   UNL     1      -1.149 -13.379  -3.199  1.00  0.00    +0.041 C 
ENDROOT
BRANCH   1   3
ATOM      3  N   UNL     1      -2.024 -12.548  -5.335  1.00  0.00    -0.343 N 
ATOM      4  C   UNL     1      -2.085 -11.450  -6.163  1.00  0.00    +0.242 C 
ATOM      5  O   UNL     1      -1.121 -10.712  -6.348  1.00  0.00    -0.273 OA
ATOM      6  H   UNL     1      -2.796 -13.212  -5.349  1.00  0.00    +0.164 HD
BRANCH   4   7
ATOM      7  C   UNL     1      -3.420 -11.323  -6.925  1.00  0.00    +0.168 C 
ATOM      8  C   UNL     1      -4.239 -12.603  -6.823  1.00  0.00    +0.041 C 
BRANCH   7   9
ATOM      9  N   UNL     1      -3.168 -10.969  -8.324  1.00  0.00    -0.345 N 
ATOM     10  C   UNL     1      -2.730 -11.902  -9.235  1.00  0.00    +0.221 C 
ATOM     11  O   UNL     1      -2.630 -13.096  -8.982  1.00  0.00    -0.275 OA
ATOM     12  H   UNL     1      -3.052  -9.985  -8.539  1.00  0.00    +0.164 HD
BRANCH  10  13
ATOM     13  C   UNL     1      -2.439 -11.310 -10.600  1.00  0.00    +0.111 C 
BRANCH  13  14
ATOM     14  C   UNL     1      -2.595  -9.795 -10.602  1.00  0.00    +0.132 C 
BRANCH  14  15
ATOM     15  C   UNL     1      -2.162  -9.214 -11.920  1.00  0.00    +0.303 C 
ATOM     16  O   UNL     1      -2.883  -8.801 -12.812  1.00  0.00    -0.252 OA
BRANCH  15  17
ATOM     17  O   UNL     1      -0.824  -9.233 -12.068  1.00  0.00    -0.481 OA
ATOM     18  H   UNL     1      -0.616 -10.175 -12.244  1.00  0.00    +0.296 HD
ENDBRANCH  15  17
ENDBRANCH  14  15
ENDBRANCH  13  14
ENDBRANCH  10  13
ENDBRANCH   7   9
ENDBRANCH   4   7
ENDBRANCH   1   3
BRANCH   1  19
ATOM     19  C   UNL     1      -0.191 -14.120  -5.406  1.00  0.00    +0.245 C 
ATOM     20  O   UNL     1      -0.248 -15.272  -4.959  1.00  0.00    -0.272 OA
BRANCH  19  21
ATOM     21  N   UNL     1       0.458 -13.843  -6.586  1.00  0.00    -0.329 N 
ATOM     22  C   UNL     1       0.230 -14.440  -7.894  1.00  0.00    +0.120 C 
ATOM     23  C   UNL     1       1.584 -12.916  -6.612  1.00  0.00    +0.174 C 
ATOM     24  C   UNL     1       1.366 -13.921  -8.767  1.00  0.00    +0.024 C 
ATOM     25  C   UNL     1       1.760 -12.607  -8.098  1.00  0.00    +0.037 C 
BRANCH  23  26
ATOM     26  C   UNL     1       2.866 -13.564  -6.041  1.00  0.00    +0.243 C 
ATOM     27  O   UNL     1       2.895 -14.685  -5.537  1.00  0.00    -0.273 OA
ATOM     28  N   UNL     1       4.003 -12.791  -6.199  1.00  0.00    -0.342 N 
ATOM     29  H   UNL     1       3.970 -12.087  -6.928  1.00  0.00    +0.164 HD
BRANCH  28  30
ATOM     30  C   UNL     1       5.324 -13.379  -5.966  1.00  0.00    +0.176 C 
BRANCH  30  31
ATOM     31  C   UNL     1       5.910 -12.876  -4.638  1.00  0.00    +0.070 C 
BRANCH  31  32
ATOM     32  C   UNL     1       5.794 -13.882  -3.516  1.00  0.00    -0.045 A 
ATOM     33  C   UNL     1       6.729 -14.918  -3.389  1.00  0.00    +0.004 A 
ATOM     34  C   UNL     1       4.726 -13.811  -2.611  1.00  0.00    +0.004 A 
ATOM     35  C   UNL     1       6.591 -15.873  -2.380  1.00  0.00    +0.000 A 
ATOM     36  C   UNL     1       4.591 -14.767  -1.603  1.00  0.00    +0.000 A 
ATOM     37  C   UNL     1       5.521 -15.798  -1.490  1.00  0.00    +0.000 A 
ENDBRANCH  31  32
ENDBRANCH  30  31
BRANCH  30  38
ATOM     38  C   UNL     1       6.220 -12.955  -7.156  1.00  0.00    +0.247 C 
ATOM     39  O   UNL     1       7.447 -13.020  -7.068  1.00  0.00    -0.272 OA
ATOM     40  N   UNL     1       5.502 -12.572  -8.275  1.00  0.00    -0.324 N 
ATOM     41  H   UNL     1       4.490 -12.626  -8.204  1.00  0.00    +0.170 HD
BRANCH  40  42
ATOM     42  C   UNL     1       6.003 -12.168  -9.528  1.00  0.00    +0.041 A 
ATOM     43  C   UNL     1       5.971 -10.853  -9.998  1.00  0.00    +0.033 A 
ATOM     44  C   UNL     1       6.566 -13.167 -10.336  1.00  0.00    +0.033 A 
ATOM     45  C   UNL     1       6.493 -10.531 -11.257  1.00  0.00    +0.088 A 
ATOM     46  C   UNL     1       7.091 -12.859 -11.596  1.00  0.00    +0.088 A 
ATOM     47  C   UNL     1       7.052 -11.537 -12.052  1.00  0.00    +0.269 A 
BRANCH  47  48
ATOM     48  N   UNL     1       7.602 -11.204 -13.372  1.00  0.00    +0.062 N 
ATOM     49  O   UNL     1       8.785 -10.839 -13.426  1.00  0.00    -0.258 OA
ATOM     50  O   UNL     1       6.851 -11.304 -14.352  1.00  0.00    -0.258 OA
ENDBRANCH  47  48
ENDBRANCH  40  42
ENDBRANCH  30  38
ENDBRANCH  28  30
ENDBRANCH  23  26
ENDBRANCH  19  21
ENDBRANCH   1  19
TORSDOF 16
ENDMDL
MODEL 8
REMARK VINA RESULT:    -6.331      2.959      6.550
REMARK INTER + INTRA:         -14.973
REMARK INTER:                 -12.370
REMARK INTRA:                  -2.602
REMARK UNBOUND:                -2.905
REMARK SMILES C[C@H](NC(=O)CCC(=O)O)C(=O)N[C@@H](C)C(=O)N1CCC[C@@H]1C(=O)N[C@H](Cc1ccccc1)C(=O)Nc1ccc([N+](=O)[O-])cc1
REMARK SMILES IDX 14 1 15 2 13 3 11 4 12 5 2 7 1 8 3 9 4 10 5 11 6 13 7 14
REMARK SMILES IDX 8 15 9 16 10 17 16 19 17 20 18 21 19 22 22 23 20 24 21 25
REMARK SMILES IDX 23 26 24 27 25 28 26 30 27 31 28 32 29 33 33 34 30 35 32 36
REMARK SMILES IDX 31 37 34 38 35 39 36 40 37 42 38 43 45 44 39 45 44 46 40 47
REMARK SMILES IDX 41 48 42 49 43 50
REMARK H PARENT 13 6 3 12 10 18 25 29 36 41
ROOT
ATOM      1  C   UNL     1      -0.524 -16.125  -6.479  1.00  0.00    +0.168 C 
ATOM      2  C   UNL     1      -1.628 -17.078  -6.925  1.00  0.00    +0.041 C 
ENDROOT
BRANCH   1   3
ATOM      3  N   UNL     1      -1.095 -14.892  -5.949  1.00  0.00    -0.343 N 
ATOM      4  C   UNL     1      -0.485 -14.134  -4.975  1.00  0.00    +0.242 C 
ATOM      5  O   UNL     1       0.585 -14.456  -4.465  1.00  0.00    -0.273 OA
ATOM      6  H   UNL     1      -1.889 -14.495  -6.449  1.00  0.00    +0.164 HD
BRANCH   4   7
ATOM      7  C   UNL     1      -1.200 -12.797  -4.693  1.00  0.00    +0.168 C 
ATOM      8  C   UNL     1      -1.562 -12.663  -3.220  1.00  0.00    +0.041 C 
BRANCH   7   9
ATOM      9  N   UNL     1      -2.389 -12.674  -5.541  1.00  0.00    -0.345 N 
ATOM     10  C   UNL     1      -2.573 -11.591  -6.369  1.00  0.00    +0.221 C 
ATOM     11  O   UNL     1      -1.725 -10.724  -6.544  1.00  0.00    -0.275 OA
ATOM     12  H   UNL     1      -3.190 -13.247  -5.300  1.00  0.00    +0.164 HD
BRANCH  10  13
ATOM     13  C   UNL     1      -3.908 -11.610  -7.085  1.00  0.00    +0.111 C 
BRANCH  13  14
ATOM     14  C   UNL     1      -5.009 -12.197  -6.211  1.00  0.00    +0.132 C 
BRANCH  14  15
ATOM     15  C   UNL     1      -6.344 -12.104  -6.896  1.00  0.00    +0.303 C 
ATOM     16  O   UNL     1      -7.017 -13.028  -7.321  1.00  0.00    -0.252 OA
BRANCH  15  17
ATOM     17  O   UNL     1      -6.743 -10.829  -7.059  1.00  0.00    -0.481 OA
ATOM     18  H   UNL     1      -7.561 -10.763  -6.524  1.00  0.00    +0.296 HD
ENDBRANCH  15  17
ENDBRANCH  14  15
ENDBRANCH  13  14
ENDBRANCH  10  13
ENDBRANCH   7   9
ENDBRANCH   4   7
ENDBRANCH   1   3
BRANCH   1  19
ATOM     19  C   UNL     1       0.365 -15.737  -7.677  1.00  0.00    +0.245 C 
ATOM     20  O   UNL     1       1.582 -15.957  -7.651  1.00  0.00    -0.272 OA
BRANCH  19  21
ATOM     21  N   UNL     1      -0.225 -15.111  -8.750  1.00  0.00    -0.329 N 
ATOM     22  C   UNL     1      -0.441 -15.642 -10.088  1.00  0.00    +0.120 C 
ATOM     23  C   UNL     1      -0.636 -13.715  -8.658  1.00  0.00    +0.174 C 
ATOM     24  C   UNL     1      -0.926 -14.454 -10.910  1.00  0.00    +0.024 C 
ATOM     25  C   UNL     1      -1.549 -13.528  -9.869  1.00  0.00    +0.037 C 
BRANCH  23  26
ATOM     26  C   UNL     1       0.576 -12.759  -8.746  1.00  0.00    +0.243 C 
ATOM     27  O   UNL     1       0.477 -11.533  -8.754  1.00  0.00    -0.273 OA
ATOM     28  N   UNL     1       1.800 -13.405  -8.760  1.00  0.00    -0.342 N 
ATOM     29  H   UNL     1       1.816 -14.347  -8.383  1.00  0.00    +0.164 HD
BRANCH  28  30
ATOM     30  C   UNL     1       3.033 -12.639  -8.561  1.00  0.00    +0.176 C 
BRANCH  30  31
ATOM     31  C   UNL     1       4.179 -13.239  -9.389  1.00  0.00    +0.070 C 
BRANCH  31  32
ATOM     32  C   UNL     1       4.910 -12.215 -10.225  1.00  0.00    -0.045 A 
ATOM     33  C   UNL     1       5.356 -11.016  -9.654  1.00  0.00    +0.004 A 
ATOM     34  C   UNL     1       5.117 -12.437 -11.594  1.00  0.00    +0.004 A 
ATOM     35  C   UNL     1       5.989 -10.051 -10.440  1.00  0.00    +0.000 A 
ATOM     36  C   UNL     1       5.750 -11.471 -12.377  1.00  0.00    +0.000 A 
ATOM     37  C   UNL     1       6.183 -10.279 -11.801  1.00  0.00    +0.000 A 
ENDBRANCH  31  32
ENDBRANCH  30  31
BRANCH  30  38
ATOM     38  C   UNL     1       3.360 -12.701  -7.048  1.00  0.00    +0.247 C 
ATOM     39  O   UNL     1       2.818 -11.925  -6.260  1.00  0.00    -0.272 OA
ATOM     40  N   UNL     1       4.242 -13.715  -6.718  1.00  0.00    -0.324 N 
ATOM     41  H   UNL     1       4.558 -14.306  -7.480  1.00  0.00    +0.170 HD
BRANCH  40  42
ATOM     42  C   UNL     1       4.714 -14.067  -5.438  1.00  0.00    +0.041 A 
ATOM     43  C   UNL     1       5.930 -13.632  -4.905  1.00  0.00    +0.033 A 
ATOM     44  C   UNL     1       3.895 -14.909  -4.671  1.00  0.00    +0.033 A 
ATOM     45  C   UNL     1       6.328 -14.026  -3.621  1.00  0.00    +0.088 A 
ATOM     46  C   UNL     1       4.281 -15.309  -3.387  1.00  0.00    +0.088 A 
ATOM     47  C   UNL     1       5.501 -14.864  -2.866  1.00  0.00    +0.269 A 
BRANCH  47  48
ATOM     48  N   UNL     1       5.914 -15.278  -1.519  1.00  0.00    +0.062 N 
ATOM     49  O   UNL     1       5.059 -15.252  -0.622  1.00  0.00    -0.258 OA
ATOM     50  O   UNL     1       7.092 -15.626  -1.359  1.00  0.00    -0.258 OA
ENDBRANCH  47  48
ENDBRANCH  40  42
ENDBRANCH  30  38
ENDBRANCH  28  30
ENDBRANCH  23  26
ENDBRANCH  19  21
ENDBRANCH   1  19
TORSDOF 16
ENDMDL
MODEL 9
REMARK VINA RESULT:    -6.249      2.915      4.573
REMARK INTER + INTRA:         -14.817
REMARK INTER:                 -11.900
REMARK INTRA:                  -2.917
REMARK UNBOUND:                -2.905
REMARK SMILES C[C@H](NC(=O)CCC(=O)O)C(=O)N[C@@H](C)C(=O)N1CCC[C@@H]1C(=O)N[C@H](Cc1ccccc1)C(=O)Nc1ccc([N+](=O)[O-])cc1
REMARK SMILES IDX 14 1 15 2 13 3 11 4 12 5 2 7 1 8 3 9 4 10 5 11 6 13 7 14
REMARK SMILES IDX 8 15 9 16 10 17 16 19 17 20 18 21 19 22 22 23 20 24 21 25
REMARK SMILES IDX 23 26 24 27 25 28 26 30 27 31 28 32 29 33 33 34 30 35 32 36
REMARK SMILES IDX 31 37 34 38 35 39 36 40 37 42 38 43 45 44 39 45 44 46 40 47
REMARK SMILES IDX 41 48 42 49 43 50
REMARK H PARENT 13 6 3 12 10 18 25 29 36 41
ROOT
ATOM      1  C   UNL     1      -0.359 -14.815  -5.575  1.00  0.00    +0.168 C 
ATOM      2  C   UNL     1      -0.611 -15.812  -6.701  1.00  0.00    +0.041 C 
ENDROOT
BRANCH   1   3
ATOM      3  N   UNL     1      -1.226 -13.651  -5.718  1.00  0.00    -0.343 N 
ATOM      4  C   UNL     1      -1.557 -12.822  -4.670  1.00  0.00    +0.242 C 
ATOM      5  O   UNL     1      -1.154 -13.016  -3.526  1.00  0.00    -0.273 OA
ATOM      6  H   UNL     1      -1.449 -13.351  -6.666  1.00  0.00    +0.164 HD
BRANCH   4   7
ATOM      7  C   UNL     1      -2.354 -11.573  -5.097  1.00  0.00    +0.168 C 
ATOM      8  C   UNL     1      -3.680 -11.956  -5.741  1.00  0.00    +0.041 C 
BRANCH   7   9
ATOM      9  N   UNL     1      -1.549 -10.747  -6.000  1.00  0.00    -0.345 N 
ATOM     10  C   UNL     1      -1.605 -10.908  -7.365  1.00  0.00    +0.221 C 
ATOM     11  O   UNL     1      -2.398 -11.657  -7.924  1.00  0.00    -0.275 OA
ATOM     12  H   UNL     1      -0.756 -10.260  -5.598  1.00  0.00    +0.164 HD
BRANCH  10  13
ATOM     13  C   UNL     1      -0.625 -10.024  -8.110  1.00  0.00    +0.111 C 
BRANCH  13  14
ATOM     14  C   UNL     1      -1.312  -9.216  -9.202  1.00  0.00    +0.132 C 
BRANCH  14  15
ATOM     15  C   UNL     1      -1.211  -7.742  -8.923  1.00  0.00    +0.303 C 
ATOM     16  O   UNL     1      -2.049  -6.890  -9.163  1.00  0.00    -0.252 OA
BRANCH  15  17
ATOM     17  O   UNL     1      -0.018  -7.406  -8.396  1.00  0.00    -0.481 OA
ATOM     18  H   UNL     1       0.562  -8.165  -8.614  1.00  0.00    +0.296 HD
ENDBRANCH  15  17
ENDBRANCH  14  15
ENDBRANCH  13  14
ENDBRANCH  10  13
ENDBRANCH   7   9
ENDBRANCH   4   7
ENDBRANCH   1   3
BRANCH   1  19
ATOM     19  C   UNL     1       1.096 -14.308  -5.624  1.00  0.00    +0.245 C 
ATOM     20  O   UNL     1       1.377 -13.270  -6.235  1.00  0.00    -0.272 OA
BRANCH  19  21
ATOM     21  N   UNL     1       2.068 -15.059  -5.005  1.00  0.00    -0.329 N 
ATOM     22  C   UNL     1       2.730 -14.796  -3.736  1.00  0.00    +0.120 C 
ATOM     23  C   UNL     1       2.631 -16.231  -5.667  1.00  0.00    +0.174 C 
ATOM     24  C   UNL     1       3.854 -15.822  -3.658  1.00  0.00    +0.024 C 
ATOM     25  C   UNL     1       3.359 -16.964  -4.541  1.00  0.00    +0.037 C 
BRANCH  23  26
ATOM     26  C   UNL     1       3.625 -15.832  -6.781  1.00  0.00    +0.243 C 
ATOM     27  O   UNL     1       4.183 -16.643  -7.518  1.00  0.00    -0.273 OA
ATOM     28  N   UNL     1       3.795 -14.465  -6.918  1.00  0.00    -0.342 N 
ATOM     29  H   UNL     1       3.052 -13.880  -6.552  1.00  0.00    +0.164 HD
BRANCH  28  30
ATOM     30  C   UNL     1       4.480 -13.928  -8.096  1.00  0.00    +0.176 C 
BRANCH  30  31
ATOM     31  C   UNL     1       5.015 -12.517  -7.811  1.00  0.00    +0.070 C 
BRANCH  31  32
ATOM     32  C   UNL     1       5.724 -11.898  -8.993  1.00  0.00    -0.045 A 
ATOM     33  C   UNL     1       5.272 -10.691  -9.544  1.00  0.00    +0.004 A 
ATOM     34  C   UNL     1       6.822 -12.544  -9.577  1.00  0.00    +0.004 A 
ATOM     35  C   UNL     1       5.899 -10.147 -10.665  1.00  0.00    +0.000 A 
ATOM     36  C   UNL     1       7.449 -11.998 -10.698  1.00  0.00    +0.000 A 
ATOM     37  C   UNL     1       6.985 -10.802 -11.243  1.00  0.00    +0.000 A 
ENDBRANCH  31  32
ENDBRANCH  30  31
BRANCH  30  38
ATOM     38  C   UNL     1       3.441 -13.898  -9.244  1.00  0.00    +0.247 C 
ATOM     39  O   UNL     1       3.617 -14.567 -10.263  1.00  0.00    -0.272 OA
ATOM     40  N   UNL     1       2.335 -13.115  -8.963  1.00  0.00    -0.324 N 
ATOM     41  H   UNL     1       2.316 -12.670  -8.051  1.00  0.00    +0.170 HD
BRANCH  40  42
ATOM     42  C   UNL     1       1.199 -12.904  -9.768  1.00  0.00    +0.041 A 
ATOM     43  C   UNL     1       0.007 -13.622  -9.644  1.00  0.00    +0.033 A 
ATOM     44  C   UNL     1       1.294 -11.905 -10.749  1.00  0.00    +0.033 A 
ATOM     45  C   UNL     1      -1.081 -13.351 -10.483  1.00  0.00    +0.088 A 
ATOM     46  C   UNL     1       0.214 -11.624 -11.593  1.00  0.00    +0.088 A 
ATOM     47  C   UNL     1      -0.973 -12.351 -11.456  1.00  0.00    +0.269 A 
BRANCH  47  48
ATOM     48  N   UNL     1      -2.112 -12.062 -12.336  1.00  0.00    +0.062 N 
ATOM     49  O   UNL     1      -2.618 -10.933 -12.270  1.00  0.00    -0.258 OA
ATOM     50  O   UNL     1      -2.501 -12.965 -13.091  1.00  0.00    -0.258 OA
ENDBRANCH  47  48
ENDBRANCH  40  42
ENDBRANCH  30  38
ENDBRANCH  28  30
ENDBRANCH  23  26
ENDBRANCH  19  21
ENDBRANCH   1  19
TORSDOF 16
ENDMDL
