MODEL 1
REMARK VINA RESULT:    -5.565      0.000      0.000
REMARK INTER + INTRA:          -9.482
REMARK INTER:                  -8.167
REMARK INTRA:                  -1.314
REMARK UNBOUND:                -1.314
REMARK SMILES O=S(=O)(O)OC[C@@H]1O[C@H](O[C@H]2[C@@H]3OC[C@H]2O[C@@H](O)[C@H]3O)[C@@H](O)[C@H](O)[C@@H]1O
REMARK SMILES IDX 9 1 21 2 23 3 25 4 7 5 8 6 10 7 11 8 14 9 15 10 13 11 16 12
REMARK SMILES IDX 12 13 17 14 19 15 18 16 20 18 22 20 24 22 6 24 5 25 2 26
REMARK SMILES IDX 1 27 3 28 4 29 26 31
REMARK H PARENT 18 17 20 19 22 21 24 23 4 30 26 32
ROOT
ATOM      1  C   UNL     1     -10.431   3.176   6.040  1.00  0.00    +0.282 C 
ATOM      2  C   UNL     1     -11.320   3.269   7.295  1.00  0.00    +0.202 C 
ATOM      3  C   UNL     1     -10.760   2.324   8.344  1.00  0.00    +0.179 C 
ATOM      4  C   UNL     1      -9.367   2.803   8.764  1.00  0.00    +0.177 C 
ATOM      5  C   UNL     1      -8.553   3.392   7.588  1.00  0.00    +0.180 C 
ATOM      6  O   UNL     1      -9.047   2.957   6.307  1.00  0.00    -0.341 OA
ENDROOT
BRANCH   1   7
ATOM      7  O   UNL     1     -10.673   4.339   5.244  1.00  0.00    -0.341 OA
BRANCH   7   8
ATOM      8  C   UNL     1      -9.719   4.507   4.201  1.00  0.00    +0.184 C 
ATOM      9  C   UNL     1      -8.446   5.825   2.739  1.00  0.00    +0.195 C 
ATOM     10  C   UNL     1      -9.106   5.896   4.117  1.00  0.00    +0.179 C 
ATOM     11  O   UNL     1      -9.296   4.966   1.937  1.00  0.00    -0.370 OA
ATOM     12  O   UNL     1     -10.130   6.904   4.206  1.00  0.00    -0.342 OA
ATOM     13  C   UNL     1     -10.350   4.491   2.813  1.00  0.00    +0.184 C 
ATOM     14  C   UNL     1     -11.135   6.872   3.199  1.00  0.00    +0.279 C 
ATOM     15  C   UNL     1     -11.550   5.448   2.766  1.00  0.00    +0.202 C 
BRANCH  14  16
ATOM     16  O   UNL     1     -10.679   7.619   2.074  1.00  0.00    -0.366 OA
ATOM     17  H   UNL     1     -10.502   6.949   1.391  1.00  0.00    +0.213 HD
ENDBRANCH  14  16
BRANCH  15  18
ATOM     18  O   UNL     1     -12.124   5.461   1.452  1.00  0.00    -0.385 OA
ATOM     19  H   UNL     1     -11.677   6.212   1.006  1.00  0.00    +0.211 HD
ENDBRANCH  15  18
ENDBRANCH   7   8
ENDBRANCH   1   7
BRANCH   2  20
ATOM     20  O   UNL     1     -12.679   2.900   7.004  1.00  0.00    -0.385 OA
ATOM     21  H   UNL     1     -12.650   2.402   6.164  1.00  0.00    +0.211 HD
ENDBRANCH   2  20
BRANCH   3  22
ATOM     22  O   UNL     1     -11.617   2.291   9.498  1.00  0.00    -0.387 OA
ATOM     23  H   UNL     1     -12.438   1.854   9.188  1.00  0.00    +0.211 HD
ENDBRANCH   3  22
BRANCH   5  24
ATOM     24  C   UNL     1      -8.347   4.917   7.636  1.00  0.00    +0.220 C 
BRANCH  24  25
ATOM     25  O   UNL     1      -7.124   5.188   8.317  1.00  0.00    -0.245 OA
BRANCH  25  26
ATOM     26  S   UNL     1      -7.104   6.420   9.374  1.00  0.00    +0.397 S 
ATOM     27  O   UNL     1      -5.820   6.481  10.036  1.00  0.00    -0.169 OA
ATOM     28  O   UNL     1      -8.349   6.409  10.108  1.00  0.00    -0.169 OA
BRANCH  26  29
ATOM     29  O   UNL     1      -7.213   7.697   8.401  1.00  0.00    -0.264 OA
ATOM     30  H   UNL     1      -8.042   8.162   8.632  1.00  0.00    +0.236 HD
ENDBRANCH  26  29
ENDBRANCH  25  26
ENDBRANCH  24  25
ENDBRANCH   5  24
BRANCH   4  31
ATOM     31  O   UNL     1      -9.498   3.746   9.834  1.00  0.00    -0.387 OA
ATOM     32  H   UNL     1      -8.706   4.323   9.759  1.00  0.00    +0.211 HD
ENDBRANCH   4  31
TORSDOF 11
ENDMDL
MODEL 2
REMARK VINA RESULT:    -5.521     28.225     29.927
REMARK INTER + INTRA:          -9.417
REMARK INTER:                  -8.048
REMARK INTRA:                  -1.369
REMARK UNBOUND:                -1.314
REMARK SMILES O=S(=O)(O)OC[C@@H]1O[C@H](O[C@H]2[C@@H]3OC[C@H]2O[C@@H](O)[C@H]3O)[C@@H](O)[C@H](O)[C@@H]1O
REMARK SMILES IDX 9 1 21 2 23 3 25 4 7 5 8 6 10 7 11 8 14 9 15 10 13 11 16 12
REMARK SMILES IDX 12 13 17 14 19 15 18 16 20 18 22 20 24 22 6 24 5 25 2 26
REMARK SMILES IDX 1 27 3 28 4 29 26 31
REMARK H PARENT 18 17 20 19 22 21 24 23 4 30 26 32
ROOT
ATOM      1  C   UNL     1      16.548  -9.214  10.045  1.00  0.00    +0.282 C 
ATOM      2  C   UNL     1      15.529  -8.608   9.061  1.00  0.00    +0.202 C 
ATOM      3  C   UNL     1      15.764  -9.228   7.694  1.00  0.00    +0.179 C 
ATOM      4  C   UNL     1      15.463 -10.728   7.760  1.00  0.00    +0.177 C 
ATOM      5  C   UNL     1      15.891 -11.370   9.101  1.00  0.00    +0.180 C 
ATOM      6  O   UNL     1      16.873 -10.581   9.798  1.00  0.00    -0.341 OA
ENDROOT
BRANCH   1   7
ATOM      7  O   UNL     1      16.066  -8.982  11.372  1.00  0.00    -0.341 OA
BRANCH   7   8
ATOM      8  C   UNL     1      17.061  -8.451  12.240  1.00  0.00    +0.184 C 
ATOM      9  C   UNL     1      17.883  -7.879  14.359  1.00  0.00    +0.195 C 
ATOM     10  C   UNL     1      16.927  -8.871  13.695  1.00  0.00    +0.179 C 
ATOM     11  O   UNL     1      17.802  -6.664  13.572  1.00  0.00    -0.370 OA
ATOM     12  O   UNL     1      15.564  -8.731  14.135  1.00  0.00    -0.342 OA
ATOM     13  C   UNL     1      16.915  -6.949  12.459  1.00  0.00    +0.184 C 
ATOM     14  C   UNL     1      15.011  -7.421  14.067  1.00  0.00    +0.279 C 
ATOM     15  C   UNL     1      15.467  -6.607  12.835  1.00  0.00    +0.202 C 
BRANCH  14  16
ATOM     16  O   UNL     1      15.334  -6.725  15.268  1.00  0.00    -0.366 OA
ATOM     17  H   UNL     1      16.283  -6.520  15.184  1.00  0.00    +0.213 HD
ENDBRANCH  14  16
BRANCH  15  18
ATOM     18  O   UNL     1      15.335  -5.200  13.076  1.00  0.00    -0.385 OA
ATOM     19  H   UNL     1      15.158  -5.141  14.039  1.00  0.00    +0.211 HD
ENDBRANCH  15  18
ENDBRANCH   7   8
ENDBRANCH   1   7
BRANCH   2  20
ATOM     20  O   UNL     1      15.677  -7.181   8.964  1.00  0.00    -0.385 OA
ATOM     21  H   UNL     1      14.831  -6.845   8.610  1.00  0.00    +0.211 HD
ENDBRANCH   2  20
BRANCH   3  22
ATOM     22  O   UNL     1      14.911  -8.617   6.712  1.00  0.00    -0.387 OA
ATOM     23  H   UNL     1      15.196  -9.003   5.857  1.00  0.00    +0.211 HD
ENDBRANCH   3  22
BRANCH   5  24
ATOM     24  C   UNL     1      14.731 -11.787  10.024  1.00  0.00    +0.220 C 
BRANCH  24  25
ATOM     25  O   UNL     1      14.364 -13.129   9.712  1.00  0.00    -0.245 OA
BRANCH  25  26
ATOM     26  S   UNL     1      12.839 -13.405   9.231  1.00  0.00    +0.397 S 
ATOM     27  O   UNL     1      12.195 -14.330  10.137  1.00  0.00    -0.169 OA
ATOM     28  O   UNL     1      12.843 -13.605   7.800  1.00  0.00    -0.169 OA
BRANCH  26  29
ATOM     29  O   UNL     1      12.157 -11.962   9.441  1.00  0.00    -0.264 OA
ATOM     30  H   UNL     1      11.194 -12.112   9.535  1.00  0.00    +0.236 HD
ENDBRANCH  26  29
ENDBRANCH  25  26
ENDBRANCH  24  25
ENDBRANCH   5  24
BRANCH   4  31
ATOM     31  O   UNL     1      14.070 -10.939   7.500  1.00  0.00    -0.387 OA
ATOM     32  H   UNL     1      14.048 -11.540   6.722  1.00  0.00    +0.211 HD
ENDBRANCH   4  31
TORSDOF 11
ENDMDL
MODEL 3
REMARK VINA RESULT:    -5.512      2.620      5.230
REMARK INTER + INTRA:          -9.405
REMARK INTER:                  -7.660
REMARK INTRA:                  -1.745
REMARK UNBOUND:                -1.314
REMARK SMILES O=S(=O)(O)OC[C@@H]1O[C@H](O[C@H]2[C@@H]3OC[C@H]2O[C@@H](O)[C@H]3O)[C@@H](O)[C@H](O)[C@@H]1O
REMARK SMILES IDX 9 1 21 2 23 3 25 4 7 5 8 6 10 7 11 8 14 9 15 10 13 11 16 12
REMARK SMILES IDX 12 13 17 14 19 15 18 16 20 18 22 20 24 22 6 24 5 25 2 26
REMARK SMILES IDX 1 27 3 28 4 29 26 31
REMARK H PARENT 18 17 20 19 22 21 24 23 4 30 26 32
ROOT
ATOM      1  C   UNL     1      -8.772   6.247   7.928  1.00  0.00    +0.282 C 
ATOM      2  C   UNL     1      -7.618   5.740   8.814  1.00  0.00    +0.202 C 
ATOM      3  C   UNL     1      -6.886   6.947   9.375  1.00  0.00    +0.179 C 
ATOM      4  C   UNL     1      -7.828   7.728  10.296  1.00  0.00    +0.177 C 
ATOM      5  C   UNL     1      -9.289   7.745   9.788  1.00  0.00    +0.180 C 
ATOM      6  O   UNL     1      -9.384   7.453   8.381  1.00  0.00    -0.341 OA
ENDROOT
BRANCH   1   7
ATOM      7  O   UNL     1      -9.702   5.173   7.763  1.00  0.00    -0.341 OA
BRANCH   7   8
ATOM      8  C   UNL     1     -10.008   4.907   6.398  1.00  0.00    +0.184 C 
ATOM      9  C   UNL     1     -11.179   3.778   4.711  1.00  0.00    +0.195 C 
ATOM     10  C   UNL     1     -11.340   4.211   6.168  1.00  0.00    +0.179 C 
ATOM     11  O   UNL     1      -9.766   3.498   4.535  1.00  0.00    -0.370 OA
ATOM     12  O   UNL     1     -11.494   3.107   7.077  1.00  0.00    -0.342 OA
ATOM     13  C   UNL     1      -9.119   3.827   5.791  1.00  0.00    +0.184 C 
ATOM     14  C   UNL     1     -10.511   2.080   6.993  1.00  0.00    +0.279 C 
ATOM     15  C   UNL     1      -9.083   2.595   6.707  1.00  0.00    +0.202 C 
BRANCH  14  16
ATOM     16  O   UNL     1     -10.911   1.145   5.994  1.00  0.00    -0.366 OA
ATOM     17  H   UNL     1     -10.243   1.239   5.291  1.00  0.00    +0.213 HD
ENDBRANCH  14  16
BRANCH  15  18
ATOM     18  O   UNL     1      -8.276   1.565   6.122  1.00  0.00    -0.385 OA
ATOM     19  H   UNL     1      -7.488   1.521   6.706  1.00  0.00    +0.211 HD
ENDBRANCH  15  18
ENDBRANCH   7   8
ENDBRANCH   1   7
BRANCH   2  20
ATOM     20  O   UNL     1      -6.694   4.934   8.063  1.00  0.00    -0.385 OA
ATOM     21  H   UNL     1      -7.210   4.177   7.723  1.00  0.00    +0.211 HD
ENDBRANCH   2  20
BRANCH   3  22
ATOM     22  O   UNL     1      -5.731   6.530  10.123  1.00  0.00    -0.387 OA
ATOM     23  H   UNL     1      -5.630   5.577   9.917  1.00  0.00    +0.211 HD
ENDBRANCH   3  22
BRANCH   5  24
ATOM     24  C   UNL     1     -10.278   6.903  10.616  1.00  0.00    +0.220 C 
BRANCH  24  25
ATOM     25  O   UNL     1     -11.574   7.028  10.036  1.00  0.00    -0.245 OA
BRANCH  25  26
ATOM     26  S   UNL     1     -12.483   5.688   9.919  1.00  0.00    +0.397 S 
ATOM     27  O   UNL     1     -13.229   5.705   8.680  1.00  0.00    -0.169 OA
ATOM     28  O   UNL     1     -13.117   5.457  11.196  1.00  0.00    -0.169 OA
BRANCH  26  29
ATOM     29  O   UNL     1     -11.365   4.536   9.801  1.00  0.00    -0.264 OA
ATOM     30  H   UNL     1     -11.136   4.457   8.853  1.00  0.00    +0.236 HD
ENDBRANCH  26  29
ENDBRANCH  25  26
ENDBRANCH  24  25
ENDBRANCH   5  24
BRANCH   4  31
ATOM     31  O   UNL     1      -7.740   7.191  11.621  1.00  0.00    -0.387 OA
ATOM     32  H   UNL     1      -8.672   7.128  11.928  1.00  0.00    +0.211 HD
ENDBRANCH   4  31
TORSDOF 11
ENDMDL
MODEL 4
REMARK VINA RESULT:    -5.466     52.608     55.936
REMARK INTER + INTRA:          -9.337
REMARK INTER:                  -8.336
REMARK INTRA:                  -1.001
REMARK UNBOUND:                -1.314
REMARK SMILES O=S(=O)(O)OC[C@@H]1O[C@H](O[C@H]2[C@@H]3OC[C@H]2O[C@@H](O)[C@H]3O)[C@@H](O)[C@H](O)[C@@H]1O
REMARK SMILES IDX 9 1 21 2 23 3 25 4 7 5 8 6 10 7 11 8 14 9 15 10 13 11 16 12
REMARK SMILES IDX 12 13 17 14 19 15 18 16 20 18 22 20 24 22 6 24 5 25 2 26
REMARK SMILES IDX 1 27 3 28 4 29 26 31
REMARK H PARENT 18 17 20 19 22 21 24 23 4 30 26 32
ROOT
ATOM      1  C   UNL     1      -7.817 -19.391 -43.326  1.00  0.00    +0.282 C 
ATOM      2  C   UNL     1      -8.779 -18.290 -42.840  1.00  0.00    +0.202 C 
ATOM      3  C   UNL     1      -8.715 -17.136 -43.825  1.00  0.00    +0.179 C 
ATOM      4  C   UNL     1      -9.242 -17.601 -45.185  1.00  0.00    +0.177 C 
ATOM      5  C   UNL     1      -8.849 -19.061 -45.516  1.00  0.00    +0.180 C 
ATOM      6  O   UNL     1      -7.721 -19.513 -44.744  1.00  0.00    -0.341 OA
ENDROOT
BRANCH   1   7
ATOM      7  O   UNL     1      -8.188 -20.613 -42.681  1.00  0.00    -0.341 OA
BRANCH   7   8
ATOM      8  C   UNL     1      -7.086 -21.271 -42.063  1.00  0.00    +0.184 C 
ATOM      9  C   UNL     1      -6.109 -23.080 -40.938  1.00  0.00    +0.195 C 
ATOM     10  C   UNL     1      -7.247 -22.776 -41.914  1.00  0.00    +0.179 C 
ATOM     11  O   UNL     1      -5.998 -21.913 -40.084  1.00  0.00    -0.370 OA
ATOM     12  O   UNL     1      -8.548 -23.093 -41.388  1.00  0.00    -0.342 OA
ATOM     13  C   UNL     1      -6.956 -20.943 -40.580  1.00  0.00    +0.184 C 
ATOM     14  C   UNL     1      -8.861 -22.549 -40.110  1.00  0.00    +0.279 C 
ATOM     15  C   UNL     1      -8.308 -21.126 -39.877  1.00  0.00    +0.202 C 
BRANCH  14  16
ATOM     16  O   UNL     1      -8.382 -23.439 -39.105  1.00  0.00    -0.366 OA
ATOM     17  H   UNL     1      -8.441 -24.322 -39.513  1.00  0.00    +0.213 HD
ENDBRANCH  14  16
BRANCH  15  18
ATOM     18  O   UNL     1      -8.180 -20.852 -38.475  1.00  0.00    -0.385 OA
ATOM     19  H   UNL     1      -7.500 -20.146 -38.433  1.00  0.00    +0.211 HD
ENDBRANCH  15  18
ENDBRANCH   7   8
ENDBRANCH   1   7
BRANCH   2  20
ATOM     20  O   UNL     1      -8.417 -17.816 -41.532  1.00  0.00    -0.385 OA
ATOM     21  H   UNL     1      -8.712 -16.886 -41.490  1.00  0.00    +0.211 HD
ENDBRANCH   2  20
BRANCH   3  22
ATOM     22  O   UNL     1      -9.514 -16.035 -43.359  1.00  0.00    -0.387 OA
ATOM     23  H   UNL     1      -9.914 -15.656 -44.170  1.00  0.00    +0.211 HD
ENDBRANCH   3  22
BRANCH   5  24
ATOM     24  C   UNL     1     -10.010 -20.072 -45.483  1.00  0.00    +0.220 C 
BRANCH  24  25
ATOM     25  O   UNL     1      -9.939 -20.881 -46.655  1.00  0.00    -0.245 OA
BRANCH  25  26
ATOM     26  S   UNL     1     -10.774 -20.396 -47.960  1.00  0.00    +0.397 S 
ATOM     27  O   UNL     1     -11.860 -21.314 -48.220  1.00  0.00    -0.169 OA
ATOM     28  O   UNL     1      -9.831 -20.010 -48.985  1.00  0.00    -0.169 OA
BRANCH  26  29
ATOM     29  O   UNL     1     -11.416 -19.011 -47.450  1.00  0.00    -0.264 OA
ATOM     30  H   UNL     1     -12.373 -19.048 -47.654  1.00  0.00    +0.236 HD
ENDBRANCH  26  29
ENDBRANCH  25  26
ENDBRANCH  24  25
ENDBRANCH   5  24
BRANCH   4  31
ATOM     31  O   UNL     1     -10.662 -17.419 -45.226  1.00  0.00    -0.387 OA
ATOM     32  H   UNL     1     -11.004 -18.213 -45.694  1.00  0.00    +0.211 HD
ENDBRANCH   4  31
TORSDOF 11
ENDMDL
MODEL 5
REMARK VINA RESULT:    -5.441     20.784     23.801
REMARK INTER + INTRA:          -9.300
REMARK INTER:                  -7.542
REMARK INTRA:                  -1.758
REMARK UNBOUND:                -1.314
REMARK SMILES O=S(=O)(O)OC[C@@H]1O[C@H](O[C@H]2[C@@H]3OC[C@H]2O[C@@H](O)[C@H]3O)[C@@H](O)[C@H](O)[C@@H]1O
REMARK SMILES IDX 9 1 21 2 23 3 25 4 7 5 8 6 10 7 11 8 14 9 15 10 13 11 16 12
REMARK SMILES IDX 12 13 17 14 19 15 18 16 20 18 22 20 24 22 6 24 5 25 2 26
REMARK SMILES IDX 1 27 3 28 4 29 26 31
REMARK H PARENT 18 17 20 19 22 21 24 23 4 30 26 32
ROOT
ATOM      1  C   UNL     1      -3.363   3.953 -16.265  1.00  0.00    +0.282 C 
ATOM      2  C   UNL     1      -2.947   4.539 -14.902  1.00  0.00    +0.202 C 
ATOM      3  C   UNL     1      -3.814   5.756 -14.625  1.00  0.00    +0.179 C 
ATOM      4  C   UNL     1      -5.273   5.316 -14.480  1.00  0.00    +0.177 C 
ATOM      5  C   UNL     1      -5.654   4.167 -15.443  1.00  0.00    +0.180 C 
ATOM      6  O   UNL     1      -4.753   4.068 -16.563  1.00  0.00    -0.341 OA
ENDROOT
BRANCH   1   7
ATOM      7  O   UNL     1      -2.884   2.606 -16.326  1.00  0.00    -0.341 OA
BRANCH   7   8
ATOM      8  C   UNL     1      -2.098   2.349 -17.485  1.00  0.00    +0.184 C 
ATOM      9  C   UNL     1      -1.001   0.912 -18.977  1.00  0.00    +0.195 C 
ATOM     10  C   UNL     1      -2.185   0.923 -18.009  1.00  0.00    +0.179 C 
ATOM     11  O   UNL     1      -0.006   1.794 -18.396  1.00  0.00    -0.370 OA
ATOM     12  O   UNL     1      -2.047  -0.017 -16.929  1.00  0.00    -0.342 OA
ATOM     13  C   UNL     1      -0.601   2.359 -17.199  1.00  0.00    +0.184 C 
ATOM     14  C   UNL     1      -0.830   0.042 -16.192  1.00  0.00    +0.279 C 
ATOM     15  C   UNL     1      -0.288   1.474 -15.985  1.00  0.00    +0.202 C 
BRANCH  14  16
ATOM     16  O   UNL     1       0.142  -0.767 -16.849  1.00  0.00    -0.366 OA
ATOM     17  H   UNL     1       0.980  -0.552 -16.402  1.00  0.00    +0.213 HD
ENDBRANCH  14  16
BRANCH  15  18
ATOM     18  O   UNL     1       1.124   1.453 -15.734  1.00  0.00    -0.385 OA
ATOM     19  H   UNL     1       1.197   1.100 -14.822  1.00  0.00    +0.211 HD
ENDBRANCH  15  18
ENDBRANCH   7   8
ENDBRANCH   1   7
BRANCH   2  20
ATOM     20  O   UNL     1      -1.564   4.933 -14.899  1.00  0.00    -0.385 OA
ATOM     21  H   UNL     1      -1.053   4.128 -15.111  1.00  0.00    +0.211 HD
ENDBRANCH   2  20
BRANCH   3  22
ATOM     22  O   UNL     1      -3.393   6.406 -13.414  1.00  0.00    -0.387 OA
ATOM     23  H   UNL     1      -3.462   7.365 -13.607  1.00  0.00    +0.211 HD
ENDBRANCH   3  22
BRANCH   5  24
ATOM     24  C   UNL     1      -5.886   2.801 -14.771  1.00  0.00    +0.220 C 
BRANCH  24  25
ATOM     25  O   UNL     1      -6.294   1.869 -15.770  1.00  0.00    -0.245 OA
BRANCH  25  26
ATOM     26  S   UNL     1      -5.692   0.363 -15.691  1.00  0.00    +0.397 S 
ATOM     27  O   UNL     1      -5.525  -0.173 -17.023  1.00  0.00    -0.169 OA
ATOM     28  O   UNL     1      -6.400  -0.355 -14.655  1.00  0.00    -0.169 OA
BRANCH  26  29
ATOM     29  O   UNL     1      -4.225   0.621 -15.081  1.00  0.00    -0.264 OA
ATOM     30  H   UNL     1      -4.119   1.591 -14.993  1.00  0.00    +0.236 HD
ENDBRANCH  26  29
ENDBRANCH  25  26
ENDBRANCH  24  25
ENDBRANCH   5  24
BRANCH   4  31
ATOM     31  O   UNL     1      -5.522   4.959 -13.115  1.00  0.00    -0.387 OA
ATOM     32  H   UNL     1      -5.555   5.816 -12.634  1.00  0.00    +0.211 HD
ENDBRANCH   4  31
TORSDOF 11
ENDMDL
MODEL 6
REMARK VINA RESULT:    -5.331      2.729      6.528
REMARK INTER + INTRA:          -9.138
REMARK INTER:                  -7.863
REMARK INTRA:                  -1.275
REMARK UNBOUND:                -1.314
REMARK SMILES O=S(=O)(O)OC[C@@H]1O[C@H](O[C@H]2[C@@H]3OC[C@H]2O[C@@H](O)[C@H]3O)[C@@H](O)[C@H](O)[C@@H]1O
REMARK SMILES IDX 9 1 21 2 23 3 25 4 7 5 8 6 10 7 11 8 14 9 15 10 13 11 16 12
REMARK SMILES IDX 12 13 17 14 19 15 18 16 20 18 22 20 24 22 6 24 5 25 2 26
REMARK SMILES IDX 1 27 3 28 4 29 26 31
REMARK H PARENT 18 17 20 19 22 21 24 23 4 30 26 32
ROOT
ATOM      1  C   UNL     1     -11.583   3.724   5.540  1.00  0.00    +0.282 C 
ATOM      2  C   UNL     1     -11.001   2.386   5.043  1.00  0.00    +0.202 C 
ATOM      3  C   UNL     1     -11.962   1.801   4.023  1.00  0.00    +0.179 C 
ATOM      4  C   UNL     1     -12.029   2.724   2.803  1.00  0.00    +0.177 C 
ATOM      5  C   UNL     1     -11.950   4.224   3.177  1.00  0.00    +0.180 C 
ATOM      6  O   UNL     1     -12.299   4.464   4.553  1.00  0.00    -0.341 OA
ENDROOT
BRANCH   1   7
ATOM      7  O   UNL     1     -10.519   4.469   6.139  1.00  0.00    -0.341 OA
BRANCH   7   8
ATOM      8  C   UNL     1     -10.948   5.262   7.241  1.00  0.00    +0.184 C 
ATOM      9  C   UNL     1     -10.562   6.772   8.992  1.00  0.00    +0.195 C 
ATOM     10  C   UNL     1      -9.998   6.386   7.623  1.00  0.00    +0.179 C 
ATOM     11  O   UNL     1     -11.074   5.544   9.570  1.00  0.00    -0.370 OA
ATOM     12  O   UNL     1      -8.644   5.903   7.681  1.00  0.00    -0.342 OA
ATOM     13  C   UNL     1     -10.899   4.510   8.566  1.00  0.00    +0.184 C 
ATOM     14  C   UNL     1      -8.387   4.857   8.612  1.00  0.00    +0.279 C 
ATOM     15  C   UNL     1      -9.534   3.830   8.740  1.00  0.00    +0.202 C 
BRANCH  14  16
ATOM     16  O   UNL     1      -8.097   5.437   9.882  1.00  0.00    -0.366 OA
ATOM     17  H   UNL     1      -7.201   5.121  10.095  1.00  0.00    +0.213 HD
ENDBRANCH  14  16
BRANCH  15  18
ATOM     18  O   UNL     1      -9.473   3.151  10.001  1.00  0.00    -0.385 OA
ATOM     19  H   UNL     1      -9.670   2.216   9.776  1.00  0.00    +0.211 HD
ENDBRANCH  15  18
ENDBRANCH   7   8
ENDBRANCH   1   7
BRANCH   2  20
ATOM     20  O   UNL     1     -10.833   1.453   6.124  1.00  0.00    -0.385 OA
ATOM     21  H   UNL     1     -10.412   0.661   5.735  1.00  0.00    +0.211 HD
ENDBRANCH   2  20
BRANCH   3  22
ATOM     22  O   UNL     1     -11.520   0.498   3.607  1.00  0.00    -0.387 OA
ATOM     23  H   UNL     1     -11.852   0.402   2.689  1.00  0.00    +0.211 HD
ENDBRANCH   3  22
BRANCH   5  24
ATOM     24  C   UNL     1     -10.637   4.925   2.786  1.00  0.00    +0.220 C 
BRANCH  24  25
ATOM     25  O   UNL     1     -10.754   5.392   1.444  1.00  0.00    -0.245 OA
BRANCH  25  26
ATOM     26  S   UNL     1      -9.432   5.333   0.504  1.00  0.00    +0.397 S 
ATOM     27  O   UNL     1      -9.570   6.256  -0.600  1.00  0.00    -0.169 OA
ATOM     28  O   UNL     1      -9.074   3.947   0.309  1.00  0.00    -0.169 OA
BRANCH  26  29
ATOM     29  O   UNL     1      -8.297   5.915   1.488  1.00  0.00    -0.264 OA
ATOM     30  H   UNL     1      -7.781   5.149   1.811  1.00  0.00    +0.236 HD
ENDBRANCH  26  29
ENDBRANCH  25  26
ENDBRANCH  24  25
ENDBRANCH   5  24
BRANCH   4  31
ATOM     31  O   UNL     1     -10.995   2.359   1.882  1.00  0.00    -0.387 OA
ATOM     32  H   UNL     1     -11.470   2.095   1.062  1.00  0.00    +0.211 HD
ENDBRANCH   4  31
TORSDOF 11
ENDMDL
MODEL 7
REMARK VINA RESULT:    -5.297      3.002      5.190
REMARK INTER + INTRA:          -9.088
REMARK INTER:                  -7.902
REMARK INTRA:                  -1.186
REMARK UNBOUND:                -1.314
REMARK SMILES O=S(=O)(O)OC[C@@H]1O[C@H](O[C@H]2[C@@H]3OC[C@H]2O[C@@H](O)[C@H]3O)[C@@H](O)[C@H](O)[C@@H]1O
REMARK SMILES IDX 9 1 21 2 23 3 25 4 7 5 8 6 10 7 11 8 14 9 15 10 13 11 16 12
REMARK SMILES IDX 12 13 17 14 19 15 18 16 20 18 22 20 24 22 6 24 5 25 2 26
REMARK SMILES IDX 1 27 3 28 4 29 26 31
REMARK H PARENT 18 17 20 19 22 21 24 23 4 30 26 32
ROOT
ATOM      1  C   UNL     1     -11.099   4.679   7.540  1.00  0.00    +0.282 C 
ATOM      2  C   UNL     1     -11.197   3.141   7.574  1.00  0.00    +0.202 C 
ATOM      3  C   UNL     1     -10.655   2.602   6.261  1.00  0.00    +0.179 C 
ATOM      4  C   UNL     1      -9.165   2.939   6.154  1.00  0.00    +0.177 C 
ATOM      5  C   UNL     1      -8.816   4.325   6.745  1.00  0.00    +0.180 C 
ATOM      6  O   UNL     1      -9.966   5.187   6.838  1.00  0.00    -0.341 OA
ENDROOT
BRANCH   1   7
ATOM      7  O   UNL     1     -11.186   5.153   8.886  1.00  0.00    -0.341 OA
BRANCH   7   8
ATOM      8  C   UNL     1     -12.440   5.760   9.182  1.00  0.00    +0.184 C 
ATOM      9  C   UNL     1     -13.953   7.548   9.110  1.00  0.00    +0.195 C 
ATOM     10  C   UNL     1     -12.784   6.963   8.317  1.00  0.00    +0.179 C 
ATOM     11  O   UNL     1     -13.669   7.262  10.504  1.00  0.00    -0.370 OA
ATOM     12  O   UNL     1     -11.657   7.852   8.223  1.00  0.00    -0.342 OA
ATOM     13  C   UNL     1     -12.447   6.480  10.526  1.00  0.00    +0.184 C 
ATOM     14  C   UNL     1     -11.176   8.393   9.449  1.00  0.00    +0.279 C 
ATOM     15  C   UNL     1     -11.228   7.406  10.637  1.00  0.00    +0.202 C 
BRANCH  14  16
ATOM     16  O   UNL     1     -11.917   9.572   9.751  1.00  0.00    -0.366 OA
ATOM     17  H   UNL     1     -12.357   9.805   8.915  1.00  0.00    +0.213 HD
ENDBRANCH  14  16
BRANCH  15  18
ATOM     18  O   UNL     1     -11.250   8.110  11.885  1.00  0.00    -0.385 OA
ATOM     19  H   UNL     1     -12.196   8.097  12.147  1.00  0.00    +0.211 HD
ENDBRANCH  15  18
ENDBRANCH   7   8
ENDBRANCH   1   7
BRANCH   2  20
ATOM     20  O   UNL     1     -12.558   2.705   7.737  1.00  0.00    -0.385 OA
ATOM     21  H   UNL     1     -13.116   3.411   7.355  1.00  0.00    +0.211 HD
ENDBRANCH   2  20
BRANCH   3  22
ATOM     22  O   UNL     1     -10.824   1.176   6.197  1.00  0.00    -0.387 OA
ATOM     23  H   UNL     1     -10.132   0.870   5.572  1.00  0.00    +0.211 HD
ENDBRANCH   3  22
BRANCH   5  24
ATOM     24  C   UNL     1      -8.017   4.291   8.061  1.00  0.00    +0.220 C 
BRANCH  24  25
ATOM     25  O   UNL     1      -7.148   5.420   8.092  1.00  0.00    -0.245 OA
BRANCH  25  26
ATOM     26  S   UNL     1      -7.309   6.467   9.322  1.00  0.00    +0.397 S 
ATOM     27  O   UNL     1      -7.875   7.708   8.843  1.00  0.00    -0.169 OA
ATOM     28  O   UNL     1      -6.102   6.426  10.115  1.00  0.00    -0.169 OA
BRANCH  26  29
ATOM     29  O   UNL     1      -8.422   5.743  10.233  1.00  0.00    -0.264 OA
ATOM     30  H   UNL     1      -8.931   5.150   9.643  1.00  0.00    +0.236 HD
ENDBRANCH  26  29
ENDBRANCH  25  26
ENDBRANCH  24  25
ENDBRANCH   5  24
BRANCH   4  31
ATOM     31  O   UNL     1      -8.403   1.898   6.775  1.00  0.00    -0.387 OA
ATOM     32  H   UNL     1      -8.792   1.803   7.673  1.00  0.00    +0.211 HD
ENDBRANCH   4  31
TORSDOF 11
ENDMDL
MODEL 8
REMARK VINA RESULT:    -5.199     21.578     24.523
REMARK INTER + INTRA:          -8.945
REMARK INTER:                  -7.800
REMARK INTRA:                  -1.145
REMARK UNBOUND:                -1.314
REMARK SMILES O=S(=O)(O)OC[C@@H]1O[C@H](O[C@H]2[C@@H]3OC[C@H]2O[C@@H](O)[C@H]3O)[C@@H](O)[C@H](O)[C@@H]1O
REMARK SMILES IDX 9 1 21 2 23 3 25 4 7 5 8 6 10 7 11 8 14 9 15 10 13 11 16 12
REMARK SMILES IDX 12 13 17 14 19 15 18 16 20 18 22 20 24 22 6 24 5 25 2 26
REMARK SMILES IDX 1 27 3 28 4 29 26 31
REMARK H PARENT 18 17 20 19 22 21 24 23 4 30 26 32
ROOT
ATOM      1  C   UNL     1      -4.534   1.521 -16.198  1.00  0.00    +0.282 C 
ATOM      2  C   UNL     1      -5.391   1.390 -14.924  1.00  0.00    +0.202 C 
ATOM      3  C   UNL     1      -6.815   1.795 -15.267  1.00  0.00    +0.179 C 
ATOM      4  C   UNL     1      -7.392   0.805 -16.282  1.00  0.00    +0.177 C 
ATOM      5  C   UNL     1      -6.345   0.319 -17.312  1.00  0.00    +0.180 C 
ATOM      6  O   UNL     1      -5.217   1.209 -17.410  1.00  0.00    -0.341 OA
ENDROOT
BRANCH   1   7
ATOM      7  O   UNL     1      -3.345   0.749 -16.007  1.00  0.00    -0.341 OA
BRANCH   7   8
ATOM      8  C   UNL     1      -2.169   1.548 -15.930  1.00  0.00    +0.184 C 
ATOM      9  C   UNL     1      -0.385   2.721 -16.897  1.00  0.00    +0.195 C 
ATOM     10  C   UNL     1      -1.817   2.286 -17.213  1.00  0.00    +0.179 C 
ATOM     11  O   UNL     1       0.172   1.673 -16.063  1.00  0.00    -0.370 OA
ATOM     12  O   UNL     1      -1.908   1.400 -18.343  1.00  0.00    -0.342 OA
ATOM     13  C   UNL     1      -0.895   0.718 -15.829  1.00  0.00    +0.184 C 
ATOM     14  C   UNL     1      -1.059   0.257 -18.318  1.00  0.00    +0.279 C 
ATOM     15  C   UNL     1      -0.882  -0.367 -16.916  1.00  0.00    +0.202 C 
BRANCH  14  16
ATOM     16  O   UNL     1       0.207   0.616 -18.866  1.00  0.00    -0.366 OA
ATOM     17  H   UNL     1       0.820   0.577 -18.110  1.00  0.00    +0.213 HD
ENDBRANCH  14  16
BRANCH  15  18
ATOM     18  O   UNL     1       0.332  -1.127 -16.846  1.00  0.00    -0.385 OA
ATOM     19  H   UNL     1       0.717  -1.040 -17.744  1.00  0.00    +0.211 HD
ENDBRANCH  15  18
ENDBRANCH   7   8
ENDBRANCH   1   7
BRANCH   2  20
ATOM     20  O   UNL     1      -4.900   2.236 -13.870  1.00  0.00    -0.385 OA
ATOM     21  H   UNL     1      -5.590   2.233 -13.178  1.00  0.00    +0.211 HD
ENDBRANCH   2  20
BRANCH   3  22
ATOM     22  O   UNL     1      -7.635   1.795 -14.086  1.00  0.00    -0.387 OA
ATOM     23  H   UNL     1      -7.546   0.889 -13.721  1.00  0.00    +0.211 HD
ENDBRANCH   3  22
BRANCH   5  24
ATOM     24  C   UNL     1      -5.905  -1.148 -17.153  1.00  0.00    +0.220 C 
BRANCH  24  25
ATOM     25  O   UNL     1      -6.703  -1.956 -18.015  1.00  0.00    -0.245 OA
BRANCH  25  26
ATOM     26  S   UNL     1      -7.865  -2.867 -17.339  1.00  0.00    +0.397 S 
ATOM     27  O   UNL     1      -9.156  -2.250 -17.542  1.00  0.00    -0.169 OA
ATOM     28  O   UNL     1      -7.409  -3.288 -16.034  1.00  0.00    -0.169 OA
BRANCH  26  29
ATOM     29  O   UNL     1      -7.812  -4.199 -18.241  1.00  0.00    -0.264 OA
ATOM     30  H   UNL     1      -8.423  -4.844 -17.832  1.00  0.00    +0.236 HD
ENDBRANCH  26  29
ENDBRANCH  25  26
ENDBRANCH  24  25
ENDBRANCH   5  24
BRANCH   4  31
ATOM     31  O   UNL     1      -7.986  -0.293 -15.581  1.00  0.00    -0.387 OA
ATOM     32  H   UNL     1      -8.533  -0.755 -16.255  1.00  0.00    +0.211 HD
ENDBRANCH   4  31
TORSDOF 11
ENDMDL
MODEL 9
REMARK VINA RESULT:    -5.173     26.653     29.295
REMARK INTER + INTRA:          -8.907
REMARK INTER:                  -8.028
REMARK INTRA:                  -0.879
REMARK UNBOUND:                -1.314
REMARK SMILES O=S(=O)(O)OC[C@@H]1O[C@H](O[C@H]2[C@@H]3OC[C@H]2O[C@@H](O)[C@H]3O)[C@@H](O)[C@H](O)[C@@H]1O
REMARK SMILES IDX 9 1 21 2 23 3 25 4 7 5 8 6 10 7 11 8 14 9 15 10 13 11 16 12
REMARK SMILES IDX 12 13 17 14 19 15 18 16 20 18 22 20 24 22 6 24 5 25 2 26
REMARK SMILES IDX 1 27 3 28 4 29 26 31
REMARK H PARENT 18 17 20 19 22 21 24 23 4 30 26 32
ROOT
ATOM      1  C   UNL     1      15.984  -9.353  10.482  1.00  0.00    +0.282 C 
ATOM      2  C   UNL     1      15.652  -8.194   9.523  1.00  0.00    +0.202 C 
ATOM      3  C   UNL     1      16.633  -8.240   8.364  1.00  0.00    +0.179 C 
ATOM      4  C   UNL     1      16.420  -9.532   7.571  1.00  0.00    +0.177 C 
ATOM      5  C   UNL     1      16.066 -10.740   8.471  1.00  0.00    +0.180 C 
ATOM      6  O   UNL     1      16.459 -10.537   9.842  1.00  0.00    -0.341 OA
ENDROOT
BRANCH   1   7
ATOM      7  O   UNL     1      14.838  -9.581  11.307  1.00  0.00    -0.341 OA
BRANCH   7   8
ATOM      8  C   UNL     1      15.013  -9.116  12.641  1.00  0.00    +0.184 C 
ATOM      9  C   UNL     1      14.648  -9.245  14.953  1.00  0.00    +0.195 C 
ATOM     10  C   UNL     1      14.708 -10.146  13.718  1.00  0.00    +0.179 C 
ATOM     11  O   UNL     1      14.124  -7.974  14.490  1.00  0.00    -0.370 OA
ATOM     12  O   UNL     1      13.464 -10.813  13.439  1.00  0.00    -0.342 OA
ATOM     13  C   UNL     1      13.964  -8.090  13.053  1.00  0.00    +0.184 C 
ATOM     14  C   UNL     1      12.308  -9.986  13.367  1.00  0.00    +0.279 C 
ATOM     15  C   UNL     1      12.558  -8.606  12.717  1.00  0.00    +0.202 C 
BRANCH  14  16
ATOM     16  O   UNL     1      11.778  -9.826  14.681  1.00  0.00    -0.366 OA
ATOM     17  H   UNL     1      11.584 -10.733  14.977  1.00  0.00    +0.213 HD
ENDBRANCH  14  16
BRANCH  15  18
ATOM     18  O   UNL     1      11.567  -7.659  13.135  1.00  0.00    -0.385 OA
ATOM     19  H   UNL     1      11.774  -6.854  12.613  1.00  0.00    +0.211 HD
ENDBRANCH  15  18
ENDBRANCH   7   8
ENDBRANCH   1   7
BRANCH   2  20
ATOM     20  O   UNL     1      15.758  -6.920  10.182  1.00  0.00    -0.385 OA
ATOM     21  H   UNL     1      15.598  -7.092  11.130  1.00  0.00    +0.211 HD
ENDBRANCH   2  20
BRANCH   3  22
ATOM     22  O   UNL     1      16.436  -7.113   7.494  1.00  0.00    -0.387 OA
ATOM     23  H   UNL     1      17.251  -6.576   7.592  1.00  0.00    +0.211 HD
ENDBRANCH   3  22
BRANCH   5  24
ATOM     24  C   UNL     1      14.611 -11.233   8.360  1.00  0.00    +0.220 C 
BRANCH  24  25
ATOM     25  O   UNL     1      14.412 -12.274   9.313  1.00  0.00    -0.245 OA
BRANCH  25  26
ATOM     26  S   UNL     1      13.047 -13.146   9.208  1.00  0.00    +0.397 S 
ATOM     27  O   UNL     1      12.790 -13.815  10.463  1.00  0.00    -0.169 OA
ATOM     28  O   UNL     1      13.055 -13.851   7.946  1.00  0.00    -0.169 OA
BRANCH  26  29
ATOM     29  O   UNL     1      11.931 -11.999   9.029  1.00  0.00    -0.264 OA
ATOM     30  H   UNL     1      11.856 -11.537   9.889  1.00  0.00    +0.236 HD
ENDBRANCH  26  29
ENDBRANCH  25  26
ENDBRANCH  24  25
ENDBRANCH   5  24
BRANCH   4  31
ATOM     31  O   UNL     1      15.416  -9.310   6.574  1.00  0.00    -0.387 OA
ATOM     32  H   UNL     1      14.723  -9.983   6.761  1.00  0.00    +0.211 HD
ENDBRANCH   4  31
TORSDOF 11
ENDMDL
