MODEL 1
REMARK VINA RESULT:    -6.385      0.000      0.000
REMARK INTER + INTRA:         -15.822
REMARK INTER:                 -12.172
REMARK INTRA:                  -3.650
REMARK UNBOUND:                -3.650
REMARK SMILES C[C@H](NC(=O)CCC(=O)O)C(=O)N[C@@H](C)C(=O)N1CCC[C@@H]1C(=O)N[C@H](Cc1ccccc1)C(=O)Nc1ccc([N+](=O)[O-])cc1
REMARK SMILES IDX 14 1 15 2 13 3 11 4 12 5 2 7 1 8 3 9 4 10 5 11 6 13 7 14
REMARK SMILES IDX 8 15 9 16 10 17 16 19 17 20 18 21 19 22 22 23 20 24 21 25
REMARK SMILES IDX 23 26 24 27 25 28 26 30 27 31 28 32 29 33 33 34 30 35 32 36
REMARK SMILES IDX 31 37 34 38 35 39 36 40 37 42 38 43 45 44 39 45 44 46 40 47
REMARK SMILES IDX 41 48 42 49 43 50
REMARK H PARENT 13 6 3 12 10 18 25 29 36 41
ROOT
ATOM      1  C   UNL     1       7.514   1.670 -13.357  1.00  0.00    +0.168 C 
ATOM      2  C   UNL     1       8.633   1.877 -14.372  1.00  0.00    +0.041 C 
ENDROOT
BRANCH   1   3
ATOM      3  N   UNL     1       6.821   0.411 -13.607  1.00  0.00    -0.343 N 
ATOM      4  C   UNL     1       6.583  -0.528 -12.628  1.00  0.00    +0.242 C 
ATOM      5  O   UNL     1       6.957  -0.377 -11.469  1.00  0.00    -0.273 OA
ATOM      6  H   UNL     1       6.348   0.310 -14.504  1.00  0.00    +0.164 HD
BRANCH   4   7
ATOM      7  C   UNL     1       5.698  -1.701 -13.098  1.00  0.00    +0.168 C 
ATOM      8  C   UNL     1       5.976  -2.056 -14.553  1.00  0.00    +0.041 C 
BRANCH   7   9
ATOM      9  N   UNL     1       4.284  -1.375 -12.896  1.00  0.00    -0.345 N 
ATOM     10  C   UNL     1       3.391  -2.310 -12.425  1.00  0.00    +0.221 C 
ATOM     11  O   UNL     1       3.722  -3.425 -12.039  1.00  0.00    -0.275 OA
ATOM     12  H   UNL     1       3.926  -0.552 -13.367  1.00  0.00    +0.164 HD
BRANCH  10  13
ATOM     13  C   UNL     1       1.965  -1.801 -12.380  1.00  0.00    +0.111 C 
BRANCH  13  14
ATOM     14  C   UNL     1       1.867  -0.458 -11.666  1.00  0.00    +0.132 C 
BRANCH  14  15
ATOM     15  C   UNL     1       0.582  -0.354 -10.893  1.00  0.00    +0.303 C 
ATOM     16  O   UNL     1      -0.276  -1.212 -10.777  1.00  0.00    -0.252 OA
BRANCH  15  17
ATOM     17  O   UNL     1       0.418   0.864 -10.343  1.00  0.00    -0.481 OA
ATOM     18  H   UNL     1      -0.500   0.849  -9.999  1.00  0.00    +0.296 HD
ENDBRANCH  15  17
ENDBRANCH  14  15
ENDBRANCH  13  14
ENDBRANCH  10  13
ENDBRANCH   7   9
ENDBRANCH   4   7
ENDBRANCH   1   3
BRANCH   1  19
ATOM     19  C   UNL     1       6.468   2.796 -13.476  1.00  0.00    +0.245 C 
ATOM     20  O   UNL     1       6.085   3.181 -14.588  1.00  0.00    -0.272 OA
BRANCH  19  21
ATOM     21  N   UNL     1       6.006   3.381 -12.320  1.00  0.00    -0.329 N 
ATOM     22  C   UNL     1       5.260   2.758 -11.238  1.00  0.00    +0.120 C 
ATOM     23  C   UNL     1       6.160   4.816 -12.105  1.00  0.00    +0.174 C 
ATOM     24  C   UNL     1       4.831   3.911 -10.339  1.00  0.00    +0.024 C 
ATOM     25  C   UNL     1       5.879   4.987 -10.612  1.00  0.00    +0.037 C 
BRANCH  23  26
ATOM     26  C   UNL     1       5.143   5.627 -12.939  1.00  0.00    +0.243 C 
ATOM     27  O   UNL     1       5.306   6.805 -13.253  1.00  0.00    -0.273 OA
ATOM     28  N   UNL     1       4.047   4.892 -13.357  1.00  0.00    -0.342 N 
ATOM     29  H   UNL     1       4.164   3.886 -13.384  1.00  0.00    +0.164 HD
BRANCH  28  30
ATOM     30  C   UNL     1       3.147   5.438 -14.377  1.00  0.00    +0.176 C 
BRANCH  30  31
ATOM     31  C   UNL     1       1.982   6.191 -13.719  1.00  0.00    +0.070 C 
BRANCH  31  32
ATOM     32  C   UNL     1       1.755   7.566 -14.304  1.00  0.00    -0.045 A 
ATOM     33  C   UNL     1       2.190   8.711 -13.623  1.00  0.00    +0.004 A 
ATOM     34  C   UNL     1       1.073   7.714 -15.520  1.00  0.00    +0.004 A 
ATOM     35  C   UNL     1       1.936   9.981 -14.143  1.00  0.00    +0.000 A 
ATOM     36  C   UNL     1       0.821   8.985 -16.037  1.00  0.00    +0.000 A 
ATOM     37  C   UNL     1       1.250  10.117 -15.348  1.00  0.00    +0.000 A 
ENDBRANCH  31  32
ENDBRANCH  30  31
BRANCH  30  38
ATOM     38  C   UNL     1       2.625   4.236 -15.203  1.00  0.00    +0.247 C 
ATOM     39  O   UNL     1       2.112   4.414 -16.308  1.00  0.00    -0.272 OA
ATOM     40  N   UNL     1       2.851   3.013 -14.596  1.00  0.00    -0.324 N 
ATOM     41  H   UNL     1       3.338   3.033 -13.705  1.00  0.00    +0.170 HD
BRANCH  40  42
ATOM     42  C   UNL     1       2.538   1.732 -15.090  1.00  0.00    +0.041 A 
ATOM     43  C   UNL     1       1.264   1.159 -15.032  1.00  0.00    +0.033 A 
ATOM     44  C   UNL     1       3.586   1.004 -15.673  1.00  0.00    +0.033 A 
ATOM     45  C   UNL     1       1.033  -0.122 -15.548  1.00  0.00    +0.088 A 
ATOM     46  C   UNL     1       3.368  -0.276 -16.194  1.00  0.00    +0.088 A 
ATOM     47  C   UNL     1       2.087  -0.836 -16.128  1.00  0.00    +0.269 A 
BRANCH  47  48
ATOM     48  N   UNL     1       1.849  -2.178 -16.673  1.00  0.00    +0.062 N 
ATOM     49  O   UNL     1       2.525  -2.531 -17.649  1.00  0.00    -0.258 OA
ATOM     50  O   UNL     1       0.983  -2.876 -16.126  1.00  0.00    -0.258 OA
ENDBRANCH  47  48
ENDBRANCH  40  42
ENDBRANCH  30  38
ENDBRANCH  28  30
ENDBRANCH  23  26
ENDBRANCH  19  21
ENDBRANCH   1  19
TORSDOF 16
ENDMDL
MODEL 2
REMARK VINA RESULT:    -6.333      3.571      7.853
REMARK INTER + INTRA:         -15.721
REMARK INTER:                 -13.843
REMARK INTRA:                  -1.878
REMARK UNBOUND:                -3.650
REMARK SMILES C[C@H](NC(=O)CCC(=O)O)C(=O)N[C@@H](C)C(=O)N1CCC[C@@H]1C(=O)N[C@H](Cc1ccccc1)C(=O)Nc1ccc([N+](=O)[O-])cc1
REMARK SMILES IDX 14 1 15 2 13 3 11 4 12 5 2 7 1 8 3 9 4 10 5 11 6 13 7 14
REMARK SMILES IDX 8 15 9 16 10 17 16 19 17 20 18 21 19 22 22 23 20 24 21 25
REMARK SMILES IDX 23 26 24 27 25 28 26 30 27 31 28 32 29 33 33 34 30 35 32 36
REMARK SMILES IDX 31 37 34 38 35 39 36 40 37 42 38 43 45 44 39 45 44 46 40 47
REMARK SMILES IDX 41 48 42 49 43 50
REMARK H PARENT 13 6 3 12 10 18 25 29 36 41
ROOT
ATOM      1  C   UNL     1       0.497  -1.180 -12.412  1.00  0.00    +0.168 C 
ATOM      2  C   UNL     1      -0.380  -1.416 -11.187  1.00  0.00    +0.041 C 
ENDROOT
BRANCH   1   3
ATOM      3  N   UNL     1       0.196  -2.156 -13.453  1.00  0.00    -0.343 N 
ATOM      4  C   UNL     1      -0.381  -1.822 -14.658  1.00  0.00    +0.242 C 
ATOM      5  O   UNL     1      -0.703  -0.671 -14.936  1.00  0.00    -0.273 OA
ATOM      6  H   UNL     1       0.591  -3.089 -13.344  1.00  0.00    +0.164 HD
BRANCH   4   7
ATOM      7  C   UNL     1      -0.454  -2.997 -15.655  1.00  0.00    +0.168 C 
ATOM      8  C   UNL     1       0.827  -3.113 -16.469  1.00  0.00    +0.041 C 
BRANCH   7   9
ATOM      9  N   UNL     1      -1.621  -2.844 -16.527  1.00  0.00    -0.345 N 
ATOM     10  C   UNL     1      -2.878  -3.229 -16.123  1.00  0.00    +0.221 C 
ATOM     11  O   UNL     1      -3.133  -3.614 -14.988  1.00  0.00    -0.275 OA
ATOM     12  H   UNL     1      -1.445  -2.716 -17.517  1.00  0.00    +0.164 HD
BRANCH  10  13
ATOM     13  C   UNL     1      -3.926  -3.076 -17.207  1.00  0.00    +0.111 C 
BRANCH  13  14
ATOM     14  C   UNL     1      -5.216  -3.803 -16.851  1.00  0.00    +0.132 C 
BRANCH  14  15
ATOM     15  C   UNL     1      -6.358  -3.316 -17.699  1.00  0.00    +0.303 C 
ATOM     16  O   UNL     1      -7.253  -3.987 -18.181  1.00  0.00    -0.252 OA
BRANCH  15  17
ATOM     17  O   UNL     1      -6.279  -1.994 -17.945  1.00  0.00    -0.481 OA
ATOM     18  H   UNL     1      -5.522  -1.910 -18.562  1.00  0.00    +0.296 HD
ENDBRANCH  15  17
ENDBRANCH  14  15
ENDBRANCH  13  14
ENDBRANCH  10  13
ENDBRANCH   7   9
ENDBRANCH   4   7
ENDBRANCH   1   3
BRANCH   1  19
ATOM     19  C   UNL     1       1.985  -1.347 -12.046  1.00  0.00    +0.245 C 
ATOM     20  O   UNL     1       2.371  -1.151 -10.888  1.00  0.00    -0.272 OA
BRANCH  19  21
ATOM     21  N   UNL     1       2.868  -1.680 -13.047  1.00  0.00    -0.329 N 
ATOM     22  C   UNL     1       3.641  -2.904 -13.187  1.00  0.00    +0.120 C 
ATOM     23  C   UNL     1       3.201  -0.716 -14.090  1.00  0.00    +0.174 C 
ATOM     24  C   UNL     1       4.598  -2.637 -14.343  1.00  0.00    +0.024 C 
ATOM     25  C   UNL     1       3.879  -1.568 -15.163  1.00  0.00    +0.037 C 
BRANCH  23  26
ATOM     26  C   UNL     1       4.173   0.369 -13.572  1.00  0.00    +0.243 C 
ATOM     27  O   UNL     1       5.376   0.181 -13.404  1.00  0.00    -0.273 OA
ATOM     28  N   UNL     1       3.578   1.601 -13.364  1.00  0.00    -0.342 N 
ATOM     29  H   UNL     1       2.712   1.773 -13.863  1.00  0.00    +0.164 HD
BRANCH  28  30
ATOM     30  C   UNL     1       4.410   2.787 -13.146  1.00  0.00    +0.176 C 
BRANCH  30  31
ATOM     31  C   UNL     1       4.427   3.165 -11.657  1.00  0.00    +0.070 C 
BRANCH  31  32
ATOM     32  C   UNL     1       5.764   3.692 -11.191  1.00  0.00    -0.045 A 
ATOM     33  C   UNL     1       5.839   4.842 -10.394  1.00  0.00    +0.004 A 
ATOM     34  C   UNL     1       6.951   3.057 -11.583  1.00  0.00    +0.004 A 
ATOM     35  C   UNL     1       7.078   5.353 -10.005  1.00  0.00    +0.000 A 
ATOM     36  C   UNL     1       8.188   3.569 -11.193  1.00  0.00    +0.000 A 
ATOM     37  C   UNL     1       8.251   4.718 -10.407  1.00  0.00    +0.000 A 
ENDBRANCH  31  32
ENDBRANCH  30  31
BRANCH  30  38
ATOM     38  C   UNL     1       3.797   3.928 -13.994  1.00  0.00    +0.247 C 
ATOM     39  O   UNL     1       3.592   3.770 -15.198  1.00  0.00    -0.272 OA
ATOM     40  N   UNL     1       3.480   5.054 -13.253  1.00  0.00    -0.324 N 
ATOM     41  H   UNL     1       3.662   5.005 -12.256  1.00  0.00    +0.170 HD
BRANCH  40  42
ATOM     42  C   UNL     1       2.879   6.244 -13.705  1.00  0.00    +0.041 A 
ATOM     43  C   UNL     1       1.644   6.300 -14.358  1.00  0.00    +0.033 A 
ATOM     44  C   UNL     1       3.582   7.436 -13.474  1.00  0.00    +0.033 A 
ATOM     45  C   UNL     1       1.112   7.526 -14.776  1.00  0.00    +0.088 A 
ATOM     46  C   UNL     1       3.061   8.668 -13.886  1.00  0.00    +0.088 A 
ATOM     47  C   UNL     1       1.824   8.707 -14.538  1.00  0.00    +0.269 A 
BRANCH  47  48
ATOM     48  N   UNL     1       1.268   9.995 -14.972  1.00  0.00    +0.062 N 
ATOM     49  O   UNL     1       1.535  10.995 -14.292  1.00  0.00    -0.258 OA
ATOM     50  O   UNL     1       0.563  10.004 -15.991  1.00  0.00    -0.258 OA
ENDBRANCH  47  48
ENDBRANCH  40  42
ENDBRANCH  30  38
ENDBRANCH  28  30
ENDBRANCH  23  26
ENDBRANCH  19  21
ENDBRANCH   1  19
TORSDOF 16
ENDMDL
MODEL 3
REMARK VINA RESULT:    -6.241     30.000     32.465
REMARK INTER + INTRA:         -15.547
REMARK INTER:                 -10.766
REMARK INTRA:                  -4.781
REMARK UNBOUND:                -3.650
REMARK SMILES C[C@H](NC(=O)CCC(=O)O)C(=O)N[C@@H](C)C(=O)N1CCC[C@@H]1C(=O)N[C@H](Cc1ccccc1)C(=O)Nc1ccc([N+](=O)[O-])cc1
REMARK SMILES IDX 14 1 15 2 13 3 11 4 12 5 2 7 1 8 3 9 4 10 5 11 6 13 7 14
REMARK SMILES IDX 8 15 9 16 10 17 16 19 17 20 18 21 19 22 22 23 20 24 21 25
REMARK SMILES IDX 23 26 24 27 25 28 26 30 27 31 28 32 29 33 33 34 30 35 32 36
REMARK SMILES IDX 31 37 34 38 35 39 36 40 37 42 38 43 45 44 39 45 44 46 40 47
REMARK SMILES IDX 41 48 42 49 43 50
REMARK H PARENT 13 6 3 12 10 18 25 29 36 41
ROOT
ATOM      1  C   UNL     1      -1.509 -16.269  10.972  1.00  0.00    +0.168 C 
ATOM      2  C   UNL     1      -1.485 -16.979   9.622  1.00  0.00    +0.041 C 
ENDROOT
BRANCH   1   3
ATOM      3  N   UNL     1      -2.880 -16.125  11.451  1.00  0.00    -0.343 N 
ATOM      4  C   UNL     1      -3.375 -16.805  12.540  1.00  0.00    +0.242 C 
ATOM      5  O   UNL     1      -2.696 -17.602  13.182  1.00  0.00    -0.273 OA
ATOM      6  H   UNL     1      -3.429 -15.360  11.063  1.00  0.00    +0.164 HD
BRANCH   4   7
ATOM      7  C   UNL     1      -4.797 -16.369  12.947  1.00  0.00    +0.168 C 
ATOM      8  C   UNL     1      -5.538 -15.735  11.778  1.00  0.00    +0.041 C 
BRANCH   7   9
ATOM      9  N   UNL     1      -4.734 -15.453  14.090  1.00  0.00    -0.345 N 
ATOM     10  C   UNL     1      -5.084 -15.858  15.357  1.00  0.00    +0.221 C 
ATOM     11  O   UNL     1      -5.358 -17.017  15.643  1.00  0.00    -0.275 OA
ATOM     12  H   UNL     1      -4.702 -14.460  13.886  1.00  0.00    +0.164 HD
BRANCH  10  13
ATOM     13  C   UNL     1      -5.042 -14.735  16.374  1.00  0.00    +0.111 C 
BRANCH  13  14
ATOM     14  C   UNL     1      -3.868 -13.796  16.128  1.00  0.00    +0.132 C 
BRANCH  14  15
ATOM     15  C   UNL     1      -4.247 -12.373  16.430  1.00  0.00    +0.303 C 
ATOM     16  O   UNL     1      -5.364 -11.946  16.666  1.00  0.00    -0.252 OA
BRANCH  15  17
ATOM     17  O   UNL     1      -3.190 -11.541  16.364  1.00  0.00    -0.481 OA
ATOM     18  H   UNL     1      -3.413 -10.822  16.992  1.00  0.00    +0.296 HD
ENDBRANCH  15  17
ENDBRANCH  14  15
ENDBRANCH  13  14
ENDBRANCH  10  13
ENDBRANCH   7   9
ENDBRANCH   4   7
ENDBRANCH   1   3
BRANCH   1  19
ATOM     19  C   UNL     1      -0.920 -14.851  10.842  1.00  0.00    +0.245 C 
ATOM     20  O   UNL     1      -0.768 -14.335   9.728  1.00  0.00    -0.272 OA
BRANCH  19  21
ATOM     21  N   UNL     1      -0.536 -14.197  11.990  1.00  0.00    -0.329 N 
ATOM     22  C   UNL     1       0.079 -14.766  13.180  1.00  0.00    +0.120 C 
ATOM     23  C   UNL     1      -0.818 -12.777  12.162  1.00  0.00    +0.174 C 
ATOM     24  C   UNL     1       0.081 -13.635  14.201  1.00  0.00    +0.024 C 
ATOM     25  C   UNL     1       0.070 -12.375  13.340  1.00  0.00    +0.037 C 
BRANCH  23  26
ATOM     26  C   UNL     1      -2.306 -12.530  12.501  1.00  0.00    +0.243 C 
ATOM     27  O   UNL     1      -3.084 -13.421  12.838  1.00  0.00    -0.273 OA
ATOM     28  N   UNL     1      -2.680 -11.198  12.448  1.00  0.00    -0.342 N 
ATOM     29  H   UNL     1      -1.933 -10.518  12.534  1.00  0.00    +0.164 HD
BRANCH  28  30
ATOM     30  C   UNL     1      -3.967 -10.778  13.008  1.00  0.00    +0.176 C 
BRANCH  30  31
ATOM     31  C   UNL     1      -5.036 -10.714  11.907  1.00  0.00    +0.070 C 
BRANCH  31  32
ATOM     32  C   UNL     1      -6.196 -11.653  12.147  1.00  0.00    -0.045 A 
ATOM     33  C   UNL     1      -7.157 -11.868  11.150  1.00  0.00    +0.004 A 
ATOM     34  C   UNL     1      -6.343 -12.293  13.385  1.00  0.00    +0.004 A 
ATOM     35  C   UNL     1      -8.252 -12.699  11.392  1.00  0.00    +0.000 A 
ATOM     36  C   UNL     1      -7.439 -13.124  13.624  1.00  0.00    +0.000 A 
ATOM     37  C   UNL     1      -8.393 -13.324  12.630  1.00  0.00    +0.000 A 
ENDBRANCH  31  32
ENDBRANCH  30  31
BRANCH  30  38
ATOM     38  C   UNL     1      -3.747  -9.382  13.639  1.00  0.00    +0.247 C 
ATOM     39  O   UNL     1      -4.622  -8.518  13.566  1.00  0.00    -0.272 OA
ATOM     40  N   UNL     1      -2.538  -9.263  14.303  1.00  0.00    -0.324 N 
ATOM     41  H   UNL     1      -1.948 -10.090  14.319  1.00  0.00    +0.170 HD
BRANCH  40  42
ATOM     42  C   UNL     1      -2.046  -8.150  15.012  1.00  0.00    +0.041 A 
ATOM     43  C   UNL     1      -1.988  -6.854  14.492  1.00  0.00    +0.033 A 
ATOM     44  C   UNL     1      -1.592  -8.382  16.319  1.00  0.00    +0.033 A 
ATOM     45  C   UNL     1      -1.486  -5.798  15.263  1.00  0.00    +0.088 A 
ATOM     46  C   UNL     1      -1.089  -7.335  17.099  1.00  0.00    +0.088 A 
ATOM     47  C   UNL     1      -1.038  -6.043  16.566  1.00  0.00    +0.269 A 
BRANCH  47  48
ATOM     48  N   UNL     1      -0.513  -4.938  17.377  1.00  0.00    +0.062 N 
ATOM     49  O   UNL     1      -0.306  -5.156  18.580  1.00  0.00    -0.258 OA
ATOM     50  O   UNL     1      -0.312  -3.853  16.814  1.00  0.00    -0.258 OA
ENDBRANCH  47  48
ENDBRANCH  40  42
ENDBRANCH  30  38
ENDBRANCH  28  30
ENDBRANCH  23  26
ENDBRANCH  19  21
ENDBRANCH   1  19
TORSDOF 16
ENDMDL
MODEL 4
REMARK VINA RESULT:    -5.981     28.711     32.743
REMARK INTER + INTRA:         -15.052
REMARK INTER:                 -11.660
REMARK INTRA:                  -3.391
REMARK UNBOUND:                -3.650
REMARK SMILES C[C@H](NC(=O)CCC(=O)O)C(=O)N[C@@H](C)C(=O)N1CCC[C@@H]1C(=O)N[C@H](Cc1ccccc1)C(=O)Nc1ccc([N+](=O)[O-])cc1
REMARK SMILES IDX 14 1 15 2 13 3 11 4 12 5 2 7 1 8 3 9 4 10 5 11 6 13 7 14
REMARK SMILES IDX 8 15 9 16 10 17 16 19 17 20 18 21 19 22 22 23 20 24 21 25
REMARK SMILES IDX 23 26 24 27 25 28 26 30 27 31 28 32 29 33 33 34 30 35 32 36
REMARK SMILES IDX 31 37 34 38 35 39 36 40 37 42 38 43 45 44 39 45 44 46 40 47
REMARK SMILES IDX 41 48 42 49 43 50
REMARK H PARENT 13 6 3 12 10 18 25 29 36 41
ROOT
ATOM      1  C   UNL     1      -5.990 -13.010  18.286  1.00  0.00    +0.168 C 
ATOM      2  C   UNL     1      -6.469 -13.363  19.691  1.00  0.00    +0.041 C 
ENDROOT
BRANCH   1   3
ATOM      3  N   UNL     1      -4.720 -12.295  18.342  1.00  0.00    -0.343 N 
ATOM      4  C   UNL     1      -3.497 -12.917  18.227  1.00  0.00    +0.242 C 
ATOM      5  O   UNL     1      -3.388 -14.132  18.085  1.00  0.00    -0.273 OA
ATOM      6  H   UNL     1      -4.756 -11.279  18.290  1.00  0.00    +0.164 HD
BRANCH   4   7
ATOM      7  C   UNL     1      -2.309 -11.936  18.157  1.00  0.00    +0.168 C 
ATOM      8  C   UNL     1      -2.761 -10.501  18.389  1.00  0.00    +0.041 C 
BRANCH   7   9
ATOM      9  N   UNL     1      -1.621 -12.071  16.870  1.00  0.00    -0.345 N 
ATOM     10  C   UNL     1      -0.282 -11.784  16.736  1.00  0.00    +0.221 C 
ATOM     11  O   UNL     1       0.447 -11.512  17.682  1.00  0.00    -0.275 OA
ATOM     12  H   UNL     1      -2.199 -12.104  16.038  1.00  0.00    +0.164 HD
BRANCH  10  13
ATOM     13  C   UNL     1       0.210 -11.894  15.307  1.00  0.00    +0.111 C 
BRANCH  13  14
ATOM     14  C   UNL     1       0.899 -10.615  14.848  1.00  0.00    +0.132 C 
BRANCH  14  15
ATOM     15  C   UNL     1       2.273 -10.908  14.315  1.00  0.00    +0.303 C 
ATOM     16  O   UNL     1       3.111 -11.643  14.809  1.00  0.00    -0.252 OA
BRANCH  15  17
ATOM     17  O   UNL     1       2.545 -10.207  13.197  1.00  0.00    -0.481 OA
ATOM     18  H   UNL     1       2.018  -9.387  13.296  1.00  0.00    +0.296 HD
ENDBRANCH  15  17
ENDBRANCH  14  15
ENDBRANCH  13  14
ENDBRANCH  10  13
ENDBRANCH   7   9
ENDBRANCH   4   7
ENDBRANCH   1   3
BRANCH   1  19
ATOM     19  C   UNL     1      -7.006 -12.082  17.592  1.00  0.00    +0.245 C 
ATOM     20  O   UNL     1      -7.669 -11.273  18.253  1.00  0.00    -0.272 OA
BRANCH  19  21
ATOM     21  N   UNL     1      -7.178 -12.205  16.233  1.00  0.00    -0.329 N 
ATOM     22  C   UNL     1      -7.633 -13.371  15.491  1.00  0.00    +0.120 C 
ATOM     23  C   UNL     1      -6.802 -11.116  15.338  1.00  0.00    +0.174 C 
ATOM     24  C   UNL     1      -7.423 -13.012  14.025  1.00  0.00    +0.024 C 
ATOM     25  C   UNL     1      -7.479 -11.487  14.019  1.00  0.00    +0.037 C 
BRANCH  23  26
ATOM     26  C   UNL     1      -5.270 -11.037  15.152  1.00  0.00    +0.243 C 
ATOM     27  O   UNL     1      -4.508 -11.978  15.371  1.00  0.00    -0.273 OA
ATOM     28  N   UNL     1      -4.826  -9.822  14.659  1.00  0.00    -0.342 N 
ATOM     29  H   UNL     1      -5.512  -9.260  14.166  1.00  0.00    +0.164 HD
BRANCH  28  30
ATOM     30  C   UNL     1      -3.451  -9.690  14.171  1.00  0.00    +0.176 C 
BRANCH  30  31
ATOM     31  C   UNL     1      -3.153  -8.231  13.793  1.00  0.00    +0.070 C 
BRANCH  31  32
ATOM     32  C   UNL     1      -2.339  -7.499  14.835  1.00  0.00    -0.045 A 
ATOM     33  C   UNL     1      -2.118  -6.120  14.727  1.00  0.00    +0.004 A 
ATOM     34  C   UNL     1      -1.764  -8.201  15.904  1.00  0.00    +0.004 A 
ATOM     35  C   UNL     1      -1.326  -5.456  15.666  1.00  0.00    +0.000 A 
ATOM     36  C   UNL     1      -0.972  -7.535  16.840  1.00  0.00    +0.000 A 
ATOM     37  C   UNL     1      -0.752  -6.164  16.719  1.00  0.00    +0.000 A 
ENDBRANCH  31  32
ENDBRANCH  30  31
BRANCH  30  38
ATOM     38  C   UNL     1      -3.323 -10.613  12.935  1.00  0.00    +0.247 C 
ATOM     39  O   UNL     1      -4.094 -10.491  11.982  1.00  0.00    -0.272 OA
ATOM     40  N   UNL     1      -2.261 -11.496  13.016  1.00  0.00    -0.324 N 
ATOM     41  H   UNL     1      -1.683 -11.433  13.849  1.00  0.00    +0.170 HD
BRANCH  40  42
ATOM     42  C   UNL     1      -1.844 -12.439  12.056  1.00  0.00    +0.041 A 
ATOM     43  C   UNL     1      -1.359 -13.712  12.367  1.00  0.00    +0.033 A 
ATOM     44  C   UNL     1      -1.931 -12.052  10.710  1.00  0.00    +0.033 A 
ATOM     45  C   UNL     1      -0.966 -14.593  11.352  1.00  0.00    +0.088 A 
ATOM     46  C   UNL     1      -1.542 -12.923   9.687  1.00  0.00    +0.088 A 
ATOM     47  C   UNL     1      -1.059 -14.195  10.014  1.00  0.00    +0.269 A 
BRANCH  47  48
ATOM     48  N   UNL     1      -0.650 -15.117   8.948  1.00  0.00    +0.062 N 
ATOM     49  O   UNL     1       0.029 -14.656   8.018  1.00  0.00    -0.258 OA
ATOM     50  O   UNL     1      -1.009 -16.299   9.038  1.00  0.00    -0.258 OA
ENDBRANCH  47  48
ENDBRANCH  40  42
ENDBRANCH  30  38
ENDBRANCH  28  30
ENDBRANCH  23  26
ENDBRANCH  19  21
ENDBRANCH   1  19
TORSDOF 16
ENDMDL
MODEL 5
REMARK VINA RESULT:    -5.951      4.243      8.050
REMARK INTER + INTRA:         -14.994
REMARK INTER:                 -13.239
REMARK INTRA:                  -1.755
REMARK UNBOUND:                -3.650
REMARK SMILES C[C@H](NC(=O)CCC(=O)O)C(=O)N[C@@H](C)C(=O)N1CCC[C@@H]1C(=O)N[C@H](Cc1ccccc1)C(=O)Nc1ccc([N+](=O)[O-])cc1
REMARK SMILES IDX 14 1 15 2 13 3 11 4 12 5 2 7 1 8 3 9 4 10 5 11 6 13 7 14
REMARK SMILES IDX 8 15 9 16 10 17 16 19 17 20 18 21 19 22 22 23 20 24 21 25
REMARK SMILES IDX 23 26 24 27 25 28 26 30 27 31 28 32 29 33 33 34 30 35 32 36
REMARK SMILES IDX 31 37 34 38 35 39 36 40 37 42 38 43 45 44 39 45 44 46 40 47
REMARK SMILES IDX 41 48 42 49 43 50
REMARK H PARENT 13 6 3 12 10 18 25 29 36 41
ROOT
ATOM      1  C   UNL     1       6.280  -1.139 -14.972  1.00  0.00    +0.168 C 
ATOM      2  C   UNL     1       5.438  -0.366 -15.981  1.00  0.00    +0.041 C 
ENDROOT
BRANCH   1   3
ATOM      3  N   UNL     1       5.459  -1.579 -13.850  1.00  0.00    -0.343 N 
ATOM      4  C   UNL     1       4.847  -2.812 -13.800  1.00  0.00    +0.242 C 
ATOM      5  O   UNL     1       4.936  -3.628 -14.713  1.00  0.00    -0.273 OA
ATOM      6  H   UNL     1       5.488  -1.016 -13.002  1.00  0.00    +0.164 HD
BRANCH   4   7
ATOM      7  C   UNL     1       4.166  -3.110 -12.448  1.00  0.00    +0.168 C 
ATOM      8  C   UNL     1       4.427  -4.542 -12.001  1.00  0.00    +0.041 C 
BRANCH   7   9
ATOM      9  N   UNL     1       2.729  -2.839 -12.539  1.00  0.00    -0.345 N 
ATOM     10  C   UNL     1       2.211  -1.596 -12.258  1.00  0.00    +0.221 C 
ATOM     11  O   UNL     1       2.905  -0.613 -12.027  1.00  0.00    -0.275 OA
ATOM     12  H   UNL     1       2.106  -3.639 -12.536  1.00  0.00    +0.164 HD
BRANCH  10  13
ATOM     13  C   UNL     1       0.698  -1.554 -12.317  1.00  0.00    +0.111 C 
BRANCH  13  14
ATOM     14  C   UNL     1       0.201  -0.473 -13.269  1.00  0.00    +0.132 C 
BRANCH  14  15
ATOM     15  C   UNL     1      -0.609  -1.073 -14.385  1.00  0.00    +0.303 C 
ATOM     16  O   UNL     1      -0.775  -2.258 -14.617  1.00  0.00    -0.252 OA
BRANCH  15  17
ATOM     17  O   UNL     1      -1.133  -0.133 -15.194  1.00  0.00    -0.481 OA
ATOM     18  H   UNL     1      -0.686   0.695 -14.919  1.00  0.00    +0.296 HD
ENDBRANCH  15  17
ENDBRANCH  14  15
ENDBRANCH  13  14
ENDBRANCH  10  13
ENDBRANCH   7   9
ENDBRANCH   4   7
ENDBRANCH   1   3
BRANCH   1  19
ATOM     19  C   UNL     1       7.389  -0.235 -14.397  1.00  0.00    +0.245 C 
ATOM     20  O   UNL     1       8.559  -0.635 -14.345  1.00  0.00    -0.272 OA
BRANCH  19  21
ATOM     21  N   UNL     1       7.036   1.003 -13.913  1.00  0.00    -0.329 N 
ATOM     22  C   UNL     1       6.984   2.265 -14.635  1.00  0.00    +0.120 C 
ATOM     23  C   UNL     1       6.747   1.187 -12.495  1.00  0.00    +0.174 C 
ATOM     24  C   UNL     1       6.747   3.322 -13.564  1.00  0.00    +0.024 C 
ATOM     25  C   UNL     1       6.055   2.550 -12.444  1.00  0.00    +0.037 C 
BRANCH  23  26
ATOM     26  C   UNL     1       8.040   1.209 -11.650  1.00  0.00    +0.243 C 
ATOM     27  O   UNL     1       8.567   0.199 -11.185  1.00  0.00    -0.273 OA
ATOM     28  N   UNL     1       8.595   2.469 -11.505  1.00  0.00    -0.342 N 
ATOM     29  H   UNL     1       8.331   3.159 -12.200  1.00  0.00    +0.164 HD
BRANCH  28  30
ATOM     30  C   UNL     1       9.954   2.613 -10.976  1.00  0.00    +0.176 C 
BRANCH  30  31
ATOM     31  C   UNL     1      10.055   3.862 -10.088  1.00  0.00    +0.070 C 
BRANCH  31  32
ATOM     32  C   UNL     1       8.995   4.896 -10.390  1.00  0.00    -0.045 A 
ATOM     33  C   UNL     1       7.697   4.754  -9.882  1.00  0.00    +0.004 A 
ATOM     34  C   UNL     1       9.289   5.991 -11.215  1.00  0.00    +0.004 A 
ATOM     35  C   UNL     1       6.707   5.685 -10.203  1.00  0.00    +0.000 A 
ATOM     36  C   UNL     1       8.298   6.921 -11.533  1.00  0.00    +0.000 A 
ATOM     37  C   UNL     1       7.008   6.766 -11.030  1.00  0.00    +0.000 A 
ENDBRANCH  31  32
ENDBRANCH  30  31
BRANCH  30  38
ATOM     38  C   UNL     1      10.900   2.730 -12.196  1.00  0.00    +0.247 C 
ATOM     39  O   UNL     1      10.537   3.322 -13.213  1.00  0.00    -0.272 OA
ATOM     40  N   UNL     1      12.146   2.166 -11.981  1.00  0.00    -0.324 N 
ATOM     41  H   UNL     1      12.307   1.762 -11.063  1.00  0.00    +0.170 HD
BRANCH  40  42
ATOM     42  C   UNL     1      13.243   2.133 -12.863  1.00  0.00    +0.041 A 
ATOM     43  C   UNL     1      13.358   1.249 -13.938  1.00  0.00    +0.033 A 
ATOM     44  C   UNL     1      14.274   3.055 -12.626  1.00  0.00    +0.033 A 
ATOM     45  C   UNL     1      14.483   1.280 -14.772  1.00  0.00    +0.088 A 
ATOM     46  C   UNL     1      15.403   3.097 -13.452  1.00  0.00    +0.088 A 
ATOM     47  C   UNL     1      15.502   2.206 -14.525  1.00  0.00    +0.269 A 
BRANCH  47  48
ATOM     48  N   UNL     1      16.682   2.243 -15.398  1.00  0.00    +0.062 N 
ATOM     49  O   UNL     1      17.069   1.173 -15.888  1.00  0.00    -0.258 OA
ATOM     50  O   UNL     1      17.223   3.342 -15.590  1.00  0.00    -0.258 OA
ENDBRANCH  47  48
ENDBRANCH  40  42
ENDBRANCH  30  38
ENDBRANCH  28  30
ENDBRANCH  23  26
ENDBRANCH  19  21
ENDBRANCH   1  19
TORSDOF 16
ENDMDL
MODEL 6
REMARK VINA RESULT:    -5.937      2.736      6.235
REMARK INTER + INTRA:         -14.968
REMARK INTER:                 -10.810
REMARK INTRA:                  -4.158
REMARK UNBOUND:                -3.650
REMARK SMILES C[C@H](NC(=O)CCC(=O)O)C(=O)N[C@@H](C)C(=O)N1CCC[C@@H]1C(=O)N[C@H](Cc1ccccc1)C(=O)Nc1ccc([N+](=O)[O-])cc1
REMARK SMILES IDX 14 1 15 2 13 3 11 4 12 5 2 7 1 8 3 9 4 10 5 11 6 13 7 14
REMARK SMILES IDX 8 15 9 16 10 17 16 19 17 20 18 21 19 22 22 23 20 24 21 25
REMARK SMILES IDX 23 26 24 27 25 28 26 30 27 31 28 32 29 33 33 34 30 35 32 36
REMARK SMILES IDX 31 37 34 38 35 39 36 40 37 42 38 43 45 44 39 45 44 46 40 47
REMARK SMILES IDX 41 48 42 49 43 50
REMARK H PARENT 13 6 3 12 10 18 25 29 36 41
ROOT
ATOM      1  C   UNL     1       4.769  -3.301 -13.649  1.00  0.00    +0.168 C 
ATOM      2  C   UNL     1       5.226  -4.752 -13.537  1.00  0.00    +0.041 C 
ENDROOT
BRANCH   1   3
ATOM      3  N   UNL     1       5.870  -2.448 -14.081  1.00  0.00    -0.343 N 
ATOM      4  C   UNL     1       5.721  -1.426 -14.992  1.00  0.00    +0.242 C 
ATOM      5  O   UNL     1       4.644  -1.170 -15.523  1.00  0.00    -0.273 OA
ATOM      6  H   UNL     1       6.739  -2.508 -13.554  1.00  0.00    +0.164 HD
BRANCH   4   7
ATOM      7  C   UNL     1       6.990  -0.567 -15.170  1.00  0.00    +0.168 C 
ATOM      8  C   UNL     1       8.250  -1.419 -15.096  1.00  0.00    +0.041 C 
BRANCH   7   9
ATOM      9  N   UNL     1       7.017   0.503 -14.169  1.00  0.00    -0.345 N 
ATOM     10  C   UNL     1       7.762   1.644 -14.356  1.00  0.00    +0.221 C 
ATOM     11  O   UNL     1       8.354   1.900 -15.398  1.00  0.00    -0.275 OA
ATOM     12  H   UNL     1       6.711   0.267 -13.232  1.00  0.00    +0.164 HD
BRANCH  10  13
ATOM     13  C   UNL     1       7.729   2.578 -13.163  1.00  0.00    +0.111 C 
BRANCH  13  14
ATOM     14  C   UNL     1       8.472   1.993 -11.969  1.00  0.00    +0.132 C 
BRANCH  14  15
ATOM     15  C   UNL     1       9.720   2.779 -11.677  1.00  0.00    +0.303 C 
ATOM     16  O   UNL     1      10.067   3.826 -12.196  1.00  0.00    -0.252 OA
BRANCH  15  17
ATOM     17  O   UNL     1      10.506   2.166 -10.772  1.00  0.00    -0.481 OA
ATOM     18  H   UNL     1       9.874   1.780 -10.129  1.00  0.00    +0.296 HD
ENDBRANCH  15  17
ENDBRANCH  14  15
ENDBRANCH  13  14
ENDBRANCH  10  13
ENDBRANCH   7   9
ENDBRANCH   4   7
ENDBRANCH   1   3
BRANCH   1  19
ATOM     19  C   UNL     1       4.301  -2.780 -12.275  1.00  0.00    +0.245 C 
ATOM     20  O   UNL     1       4.822  -3.201 -11.235  1.00  0.00    -0.272 OA
BRANCH  19  21
ATOM     21  N   UNL     1       3.271  -1.870 -12.240  1.00  0.00    -0.329 N 
ATOM     22  C   UNL     1       2.142  -1.760 -13.152  1.00  0.00    +0.120 C 
ATOM     23  C   UNL     1       3.269  -0.791 -11.258  1.00  0.00    +0.174 C 
ATOM     24  C   UNL     1       1.451  -0.458 -12.769  1.00  0.00    +0.024 C 
ATOM     25  C   UNL     1       1.835  -0.265 -11.305  1.00  0.00    +0.037 C 
BRANCH  23  26
ATOM     26  C   UNL     1       4.265   0.327 -11.642  1.00  0.00    +0.243 C 
ATOM     27  O   UNL     1       5.459   0.131 -11.858  1.00  0.00    -0.273 OA
ATOM     28  N   UNL     1       3.681   1.575 -11.779  1.00  0.00    -0.342 N 
ATOM     29  H   UNL     1       2.682   1.588 -11.953  1.00  0.00    +0.164 HD
BRANCH  28  30
ATOM     30  C   UNL     1       4.431   2.668 -12.404  1.00  0.00    +0.176 C 
BRANCH  30  31
ATOM     31  C   UNL     1       4.158   3.993 -11.676  1.00  0.00    +0.070 C 
BRANCH  31  32
ATOM     32  C   UNL     1       5.407   4.805 -11.427  1.00  0.00    -0.045 A 
ATOM     33  C   UNL     1       5.821   5.777 -12.347  1.00  0.00    +0.004 A 
ATOM     34  C   UNL     1       6.189   4.568 -10.288  1.00  0.00    +0.004 A 
ATOM     35  C   UNL     1       7.001   6.492 -12.137  1.00  0.00    +0.000 A 
ATOM     36  C   UNL     1       7.369   5.284 -10.080  1.00  0.00    +0.000 A 
ATOM     37  C   UNL     1       7.775   6.243 -11.006  1.00  0.00    +0.000 A 
ENDBRANCH  31  32
ENDBRANCH  30  31
BRANCH  30  38
ATOM     38  C   UNL     1       3.964   2.746 -13.878  1.00  0.00    +0.247 C 
ATOM     39  O   UNL     1       4.336   1.904 -14.696  1.00  0.00    -0.272 OA
ATOM     40  N   UNL     1       3.087   3.789 -14.122  1.00  0.00    -0.324 N 
ATOM     41  H   UNL     1       2.836   4.364 -13.324  1.00  0.00    +0.170 HD
BRANCH  40  42
ATOM     42  C   UNL     1       2.450   4.117 -15.335  1.00  0.00    +0.041 A 
ATOM     43  C   UNL     1       2.400   5.407 -15.869  1.00  0.00    +0.033 A 
ATOM     44  C   UNL     1       1.835   3.066 -16.032  1.00  0.00    +0.033 A 
ATOM     45  C   UNL     1       1.747   5.653 -17.083  1.00  0.00    +0.088 A 
ATOM     46  C   UNL     1       1.180   3.298 -17.247  1.00  0.00    +0.088 A 
ATOM     47  C   UNL     1       1.139   4.595 -17.768  1.00  0.00    +0.269 A 
BRANCH  47  48
ATOM     48  N   UNL     1       0.456   4.848 -19.043  1.00  0.00    +0.062 N 
ATOM     49  O   UNL     1       0.729   5.896 -19.644  1.00  0.00    -0.258 OA
ATOM     50  O   UNL     1      -0.355   3.999 -19.441  1.00  0.00    -0.258 OA
ENDBRANCH  47  48
ENDBRANCH  40  42
ENDBRANCH  30  38
ENDBRANCH  28  30
ENDBRANCH  23  26
ENDBRANCH  19  21
ENDBRANCH   1  19
TORSDOF 16
ENDMDL
MODEL 7
REMARK VINA RESULT:    -5.931      2.996      6.769
REMARK INTER + INTRA:         -14.956
REMARK INTER:                 -13.325
REMARK INTRA:                  -1.631
REMARK UNBOUND:                -3.650
REMARK SMILES C[C@H](NC(=O)CCC(=O)O)C(=O)N[C@@H](C)C(=O)N1CCC[C@@H]1C(=O)N[C@H](Cc1ccccc1)C(=O)Nc1ccc([N+](=O)[O-])cc1
REMARK SMILES IDX 14 1 15 2 13 3 11 4 12 5 2 7 1 8 3 9 4 10 5 11 6 13 7 14
REMARK SMILES IDX 8 15 9 16 10 17 16 19 17 20 18 21 19 22 22 23 20 24 21 25
REMARK SMILES IDX 23 26 24 27 25 28 26 30 27 31 28 32 29 33 33 34 30 35 32 36
REMARK SMILES IDX 31 37 34 38 35 39 36 40 37 42 38 43 45 44 39 45 44 46 40 47
REMARK SMILES IDX 41 48 42 49 43 50
REMARK H PARENT 13 6 3 12 10 18 25 29 36 41
ROOT
ATOM      1  C   UNL     1       3.197   0.422 -13.546  1.00  0.00    +0.168 C 
ATOM      2  C   UNL     1       3.292   1.607 -14.500  1.00  0.00    +0.041 C 
ENDROOT
BRANCH   1   3
ATOM      3  N   UNL     1       1.802   0.112 -13.250  1.00  0.00    -0.343 N 
ATOM      4  C   UNL     1       1.377  -1.126 -12.823  1.00  0.00    +0.242 C 
ATOM      5  O   UNL     1       2.148  -2.071 -12.675  1.00  0.00    -0.273 OA
ATOM      6  H   UNL     1       1.154   0.896 -13.195  1.00  0.00    +0.164 HD
BRANCH   4   7
ATOM      7  C   UNL     1      -0.112  -1.165 -12.424  1.00  0.00    +0.168 C 
ATOM      8  C   UNL     1      -0.279  -1.343 -10.922  1.00  0.00    +0.041 C 
BRANCH   7   9
ATOM      9  N   UNL     1      -0.802  -2.227 -13.161  1.00  0.00    -0.345 N 
ATOM     10  C   UNL     1      -1.379  -1.994 -14.388  1.00  0.00    +0.221 C 
ATOM     11  O   UNL     1      -1.265  -0.937 -14.997  1.00  0.00    -0.275 OA
ATOM     12  H   UNL     1      -1.087  -3.045 -12.635  1.00  0.00    +0.164 HD
BRANCH  10  13
ATOM     13  C   UNL     1      -2.123  -3.196 -14.934  1.00  0.00    +0.111 C 
BRANCH  13  14
ATOM     14  C   UNL     1      -1.754  -3.476 -16.385  1.00  0.00    +0.132 C 
BRANCH  14  15
ATOM     15  C   UNL     1      -2.930  -3.244 -17.292  1.00  0.00    +0.303 C 
ATOM     16  O   UNL     1      -4.109  -3.393 -17.018  1.00  0.00    -0.252 OA
BRANCH  15  17
ATOM     17  O   UNL     1      -2.552  -2.884 -18.533  1.00  0.00    -0.481 OA
ATOM     18  H   UNL     1      -3.349  -2.457 -18.912  1.00  0.00    +0.296 HD
ENDBRANCH  15  17
ENDBRANCH  14  15
ENDBRANCH  13  14
ENDBRANCH  10  13
ENDBRANCH   7   9
ENDBRANCH   4   7
ENDBRANCH   1   3
BRANCH   1  19
ATOM     19  C   UNL     1       3.883   0.756 -12.206  1.00  0.00    +0.245 C 
ATOM     20  O   UNL     1       3.383   1.585 -11.436  1.00  0.00    -0.272 OA
BRANCH  19  21
ATOM     21  N   UNL     1       5.076   0.137 -11.914  1.00  0.00    -0.329 N 
ATOM     22  C   UNL     1       5.470  -0.506 -10.669  1.00  0.00    +0.120 C 
ATOM     23  C   UNL     1       6.174   0.156 -12.875  1.00  0.00    +0.174 C 
ATOM     24  C   UNL     1       6.952  -0.816 -10.837  1.00  0.00    +0.024 C 
ATOM     25  C   UNL     1       7.128  -0.916 -12.350  1.00  0.00    +0.037 C 
BRANCH  23  26
ATOM     26  C   UNL     1       6.877   1.532 -12.908  1.00  0.00    +0.243 C 
ATOM     27  O   UNL     1       7.823   1.795 -13.648  1.00  0.00    -0.273 OA
ATOM     28  N   UNL     1       6.310   2.472 -12.065  1.00  0.00    -0.342 N 
ATOM     29  H   UNL     1       5.348   2.305 -11.787  1.00  0.00    +0.164 HD
BRANCH  28  30
ATOM     30  C   UNL     1       6.682   3.884 -12.189  1.00  0.00    +0.176 C 
BRANCH  30  31
ATOM     31  C   UNL     1       7.328   4.386 -10.889  1.00  0.00    +0.070 C 
BRANCH  31  32
ATOM     32  C   UNL     1       8.547   5.247 -11.124  1.00  0.00    -0.045 A 
ATOM     33  C   UNL     1       9.834   4.697 -11.050  1.00  0.00    +0.004 A 
ATOM     34  C   UNL     1       8.406   6.618 -11.381  1.00  0.00    +0.004 A 
ATOM     35  C   UNL     1      10.959   5.505 -11.220  1.00  0.00    +0.000 A 
ATOM     36  C   UNL     1       9.532   7.424 -11.551  1.00  0.00    +0.000 A 
ATOM     37  C   UNL     1      10.807   6.868 -11.468  1.00  0.00    +0.000 A 
ENDBRANCH  31  32
ENDBRANCH  30  31
BRANCH  30  38
ATOM     38  C   UNL     1       5.380   4.666 -12.491  1.00  0.00    +0.247 C 
ATOM     39  O   UNL     1       4.599   4.953 -11.582  1.00  0.00    -0.272 OA
ATOM     40  N   UNL     1       5.249   5.023 -13.822  1.00  0.00    -0.324 N 
ATOM     41  H   UNL     1       6.010   4.756 -14.438  1.00  0.00    +0.170 HD
BRANCH  40  42
ATOM     42  C   UNL     1       4.212   5.765 -14.419  1.00  0.00    +0.041 A 
ATOM     43  C   UNL     1       4.364   6.527 -15.581  1.00  0.00    +0.033 A 
ATOM     44  C   UNL     1       2.958   5.721 -13.792  1.00  0.00    +0.033 A 
ATOM     45  C   UNL     1       3.281   7.237 -16.115  1.00  0.00    +0.088 A 
ATOM     46  C   UNL     1       1.869   6.425 -14.316  1.00  0.00    +0.088 A 
ATOM     47  C   UNL     1       2.036   7.183 -15.480  1.00  0.00    +0.269 A 
BRANCH  47  48
ATOM     48  N   UNL     1       0.898   7.924 -16.038  1.00  0.00    +0.062 N 
ATOM     49  O   UNL     1       0.716   9.084 -15.639  1.00  0.00    -0.258 OA
ATOM     50  O   UNL     1       0.186   7.346 -16.871  1.00  0.00    -0.258 OA
ENDBRANCH  47  48
ENDBRANCH  40  42
ENDBRANCH  30  38
ENDBRANCH  28  30
ENDBRANCH  23  26
ENDBRANCH  19  21
ENDBRANCH   1  19
TORSDOF 16
ENDMDL
MODEL 8
REMARK VINA RESULT:    -5.898      2.803      9.418
REMARK INTER + INTRA:         -14.894
REMARK INTER:                 -13.065
REMARK INTRA:                  -1.829
REMARK UNBOUND:                -3.650
REMARK SMILES C[C@H](NC(=O)CCC(=O)O)C(=O)N[C@@H](C)C(=O)N1CCC[C@@H]1C(=O)N[C@H](Cc1ccccc1)C(=O)Nc1ccc([N+](=O)[O-])cc1
REMARK SMILES IDX 14 1 15 2 13 3 11 4 12 5 2 7 1 8 3 9 4 10 5 11 6 13 7 14
REMARK SMILES IDX 8 15 9 16 10 17 16 19 17 20 18 21 19 22 22 23 20 24 21 25
REMARK SMILES IDX 23 26 24 27 25 28 26 30 27 31 28 32 29 33 33 34 30 35 32 36
REMARK SMILES IDX 31 37 34 38 35 39 36 40 37 42 38 43 45 44 39 45 44 46 40 47
REMARK SMILES IDX 41 48 42 49 43 50
REMARK H PARENT 13 6 3 12 10 18 25 29 36 41
ROOT
ATOM      1  C   UNL     1       3.202   1.185 -14.889  1.00  0.00    +0.168 C 
ATOM      2  C   UNL     1       4.384   0.226 -14.793  1.00  0.00    +0.041 C 
ENDROOT
BRANCH   1   3
ATOM      3  N   UNL     1       3.340   2.268 -13.921  1.00  0.00    -0.343 N 
ATOM      4  C   UNL     1       3.731   3.542 -14.263  1.00  0.00    +0.242 C 
ATOM      5  O   UNL     1       4.010   3.857 -15.417  1.00  0.00    -0.273 OA
ATOM      6  H   UNL     1       2.963   2.107 -12.988  1.00  0.00    +0.164 HD
BRANCH   4   7
ATOM      7  C   UNL     1       3.650   4.548 -13.097  1.00  0.00    +0.168 C 
ATOM      8  C   UNL     1       3.014   5.859 -13.539  1.00  0.00    +0.041 C 
BRANCH   7   9
ATOM      9  N   UNL     1       4.984   4.773 -12.534  1.00  0.00    -0.345 N 
ATOM     10  C   UNL     1       5.469   4.002 -11.503  1.00  0.00    +0.221 C 
ATOM     11  O   UNL     1       4.886   3.019 -11.064  1.00  0.00    -0.275 OA
ATOM     12  H   UNL     1       5.420   5.669 -12.721  1.00  0.00    +0.164 HD
BRANCH  10  13
ATOM     13  C   UNL     1       6.825   4.460 -11.005  1.00  0.00    +0.111 C 
BRANCH  13  14
ATOM     14  C   UNL     1       6.706   5.646 -10.056  1.00  0.00    +0.132 C 
BRANCH  14  15
ATOM     15  C   UNL     1       7.082   6.927 -10.750  1.00  0.00    +0.303 C 
ATOM     16  O   UNL     1       8.191   7.255 -11.135  1.00  0.00    -0.252 OA
BRANCH  15  17
ATOM     17  O   UNL     1       6.033   7.763 -10.875  1.00  0.00    -0.481 OA
ATOM     18  H   UNL     1       5.252   7.171 -10.859  1.00  0.00    +0.296 HD
ENDBRANCH  15  17
ENDBRANCH  14  15
ENDBRANCH  13  14
ENDBRANCH  10  13
ENDBRANCH   7   9
ENDBRANCH   4   7
ENDBRANCH   1   3
BRANCH   1  19
ATOM     19  C   UNL     1       1.887   0.448 -14.564  1.00  0.00    +0.245 C 
ATOM     20  O   UNL     1       0.977   0.394 -15.400  1.00  0.00    -0.272 OA
BRANCH  19  21
ATOM     21  N   UNL     1       1.744  -0.108 -13.314  1.00  0.00    -0.329 N 
ATOM     22  C   UNL     1       1.938   0.532 -12.022  1.00  0.00    +0.120 C 
ATOM     23  C   UNL     1       1.449  -1.529 -13.166  1.00  0.00    +0.174 C 
ATOM     24  C   UNL     1       1.860  -0.600 -11.005  1.00  0.00    +0.024 C 
ATOM     25  C   UNL     1       1.009  -1.654 -11.708  1.00  0.00    +0.037 C 
BRANCH  23  26
ATOM     26  C   UNL     1       2.700  -2.399 -13.427  1.00  0.00    +0.243 C 
ATOM     27  O   UNL     1       3.068  -2.742 -14.549  1.00  0.00    -0.273 OA
ATOM     28  N   UNL     1       3.412  -2.715 -12.283  1.00  0.00    -0.342 N 
ATOM     29  H   UNL     1       3.270  -2.108 -11.483  1.00  0.00    +0.164 HD
BRANCH  28  30
ATOM     30  C   UNL     1       4.755  -3.288 -12.393  1.00  0.00    +0.176 C 
BRANCH  30  31
ATOM     31  C   UNL     1       4.856  -4.584 -11.576  1.00  0.00    +0.070 C 
BRANCH  31  32
ATOM     32  C   UNL     1       4.460  -5.815 -12.358  1.00  0.00    -0.045 A 
ATOM     33  C   UNL     1       3.858  -6.905 -11.715  1.00  0.00    +0.004 A 
ATOM     34  C   UNL     1       4.724  -5.895 -13.732  1.00  0.00    +0.004 A 
ATOM     35  C   UNL     1       3.538  -8.059 -12.432  1.00  0.00    +0.000 A 
ATOM     36  C   UNL     1       4.402  -7.050 -14.447  1.00  0.00    +0.000 A 
ATOM     37  C   UNL     1       3.812  -8.131 -13.797  1.00  0.00    +0.000 A 
ENDBRANCH  31  32
ENDBRANCH  30  31
BRANCH  30  38
ATOM     38  C   UNL     1       5.743  -2.224 -11.856  1.00  0.00    +0.247 C 
ATOM     39  O   UNL     1       5.908  -2.081 -10.644  1.00  0.00    -0.272 OA
ATOM     40  N   UNL     1       6.411  -1.539 -12.856  1.00  0.00    -0.324 N 
ATOM     41  H   UNL     1       6.200  -1.814 -13.810  1.00  0.00    +0.170 HD
BRANCH  40  42
ATOM     42  C   UNL     1       7.395  -0.542 -12.712  1.00  0.00    +0.041 A 
ATOM     43  C   UNL     1       7.586   0.208 -11.548  1.00  0.00    +0.033 A 
ATOM     44  C   UNL     1       8.222  -0.303 -13.820  1.00  0.00    +0.033 A 
ATOM     45  C   UNL     1       8.590   1.182 -11.483  1.00  0.00    +0.088 A 
ATOM     46  C   UNL     1       9.229   0.667 -13.767  1.00  0.00    +0.088 A 
ATOM     47  C   UNL     1       9.409   1.408 -12.595  1.00  0.00    +0.269 A 
BRANCH  47  48
ATOM     48  N   UNL     1      10.463   2.427 -12.530  1.00  0.00    +0.062 N 
ATOM     49  O   UNL     1      10.116   3.603 -12.350  1.00  0.00    -0.258 OA
ATOM     50  O   UNL     1      11.637   2.052 -12.663  1.00  0.00    -0.258 OA
ENDBRANCH  47  48
ENDBRANCH  40  42
ENDBRANCH  30  38
ENDBRANCH  28  30
ENDBRANCH  23  26
ENDBRANCH  19  21
ENDBRANCH   1  19
TORSDOF 16
ENDMDL
MODEL 9
REMARK VINA RESULT:    -5.881      3.391      7.530
REMARK INTER + INTRA:         -14.861
REMARK INTER:                 -12.516
REMARK INTRA:                  -2.345
REMARK UNBOUND:                -3.650
REMARK SMILES C[C@H](NC(=O)CCC(=O)O)C(=O)N[C@@H](C)C(=O)N1CCC[C@@H]1C(=O)N[C@H](Cc1ccccc1)C(=O)Nc1ccc([N+](=O)[O-])cc1
REMARK SMILES IDX 14 1 15 2 13 3 11 4 12 5 2 7 1 8 3 9 4 10 5 11 6 13 7 14
REMARK SMILES IDX 8 15 9 16 10 17 16 19 17 20 18 21 19 22 22 23 20 24 21 25
REMARK SMILES IDX 23 26 24 27 25 28 26 30 27 31 28 32 29 33 33 34 30 35 32 36
REMARK SMILES IDX 31 37 34 38 35 39 36 40 37 42 38 43 45 44 39 45 44 46 40 47
REMARK SMILES IDX 41 48 42 49 43 50
REMARK H PARENT 13 6 3 12 10 18 25 29 36 41
ROOT
ATOM      1  C   UNL     1       5.069   2.303 -13.773  1.00  0.00    +0.168 C 
ATOM      2  C   UNL     1       6.308   1.637 -14.361  1.00  0.00    +0.041 C 
ENDROOT
BRANCH   1   3
ATOM      3  N   UNL     1       4.144   1.300 -13.256  1.00  0.00    -0.343 N 
ATOM      4  C   UNL     1       3.768   1.230 -11.933  1.00  0.00    +0.242 C 
ATOM      5  O   UNL     1       4.202   2.003 -11.084  1.00  0.00    -0.273 OA
ATOM      6  H   UNL     1       3.630   0.746 -13.939  1.00  0.00    +0.164 HD
BRANCH   4   7
ATOM      7  C   UNL     1       2.663   0.189 -11.659  1.00  0.00    +0.168 C 
ATOM      8  C   UNL     1       3.256  -1.152 -11.247  1.00  0.00    +0.041 C 
BRANCH   7   9
ATOM      9  N   UNL     1       1.804   0.046 -12.837  1.00  0.00    -0.345 N 
ATOM     10  C   UNL     1       0.508  -0.403 -12.733  1.00  0.00    +0.221 C 
ATOM     11  O   UNL     1      -0.052  -0.604 -11.661  1.00  0.00    -0.275 OA
ATOM     12  H   UNL     1       2.261   0.013 -13.742  1.00  0.00    +0.164 HD
BRANCH  10  13
ATOM     13  C   UNL     1      -0.174  -0.571 -14.075  1.00  0.00    +0.111 C 
BRANCH  13  14
ATOM     14  C   UNL     1      -0.267  -2.037 -14.481  1.00  0.00    +0.132 C 
BRANCH  14  15
ATOM     15  C   UNL     1      -1.647  -2.577 -14.225  1.00  0.00    +0.303 C 
ATOM     16  O   UNL     1      -2.517  -2.791 -15.052  1.00  0.00    -0.252 OA
BRANCH  15  17
ATOM     17  O   UNL     1      -1.881  -2.771 -12.913  1.00  0.00    -0.481 OA
ATOM     18  H   UNL     1      -2.226  -1.909 -12.601  1.00  0.00    +0.296 HD
ENDBRANCH  15  17
ENDBRANCH  14  15
ENDBRANCH  13  14
ENDBRANCH  10  13
ENDBRANCH   7   9
ENDBRANCH   4   7
ENDBRANCH   1   3
BRANCH   1  19
ATOM     19  C   UNL     1       4.319   3.096 -14.862  1.00  0.00    +0.245 C 
ATOM     20  O   UNL     1       4.392   2.753 -16.048  1.00  0.00    -0.272 OA
BRANCH  19  21
ATOM     21  N   UNL     1       3.604   4.208 -14.482  1.00  0.00    -0.329 N 
ATOM     22  C   UNL     1       2.609   4.938 -15.252  1.00  0.00    +0.120 C 
ATOM     23  C   UNL     1       3.870   4.857 -13.203  1.00  0.00    +0.174 C 
ATOM     24  C   UNL     1       2.315   6.188 -14.432  1.00  0.00    +0.024 C 
ATOM     25  C   UNL     1       2.661   5.770 -13.005  1.00  0.00    +0.037 C 
BRANCH  23  26
ATOM     26  C   UNL     1       5.171   5.690 -13.249  1.00  0.00    +0.243 C 
ATOM     27  O   UNL     1       6.068   5.507 -14.070  1.00  0.00    -0.273 OA
ATOM     28  N   UNL     1       5.219   6.708 -12.313  1.00  0.00    -0.342 N 
ATOM     29  H   UNL     1       4.328   7.024 -11.946  1.00  0.00    +0.164 HD
BRANCH  28  30
ATOM     30  C   UNL     1       6.248   7.746 -12.414  1.00  0.00    +0.176 C 
BRANCH  30  31
ATOM     31  C   UNL     1       7.085   7.801 -11.127  1.00  0.00    +0.070 C 
BRANCH  31  32
ATOM     32  C   UNL     1       8.303   6.907 -11.169  1.00  0.00    -0.045 A 
ATOM     33  C   UNL     1       8.217   5.566 -10.771  1.00  0.00    +0.004 A 
ATOM     34  C   UNL     1       9.543   7.421 -11.572  1.00  0.00    +0.004 A 
ATOM     35  C   UNL     1       9.354   4.757 -10.766  1.00  0.00    +0.000 A 
ATOM     36  C   UNL     1      10.678   6.609 -11.566  1.00  0.00    +0.000 A 
ATOM     37  C   UNL     1      10.584   5.280 -11.161  1.00  0.00    +0.000 A 
ENDBRANCH  31  32
ENDBRANCH  30  31
BRANCH  30  38
ATOM     38  C   UNL     1       5.511   9.088 -12.645  1.00  0.00    +0.247 C 
ATOM     39  O   UNL     1       5.838  10.096 -12.018  1.00  0.00    -0.272 OA
ATOM     40  N   UNL     1       4.537   9.018 -13.626  1.00  0.00    -0.324 N 
ATOM     41  H   UNL     1       4.426   8.121 -14.089  1.00  0.00    +0.170 HD
BRANCH  40  42
ATOM     42  C   UNL     1       3.715  10.057 -14.104  1.00  0.00    +0.041 A 
ATOM     43  C   UNL     1       4.188  11.170 -14.804  1.00  0.00    +0.033 A 
ATOM     44  C   UNL     1       2.340   9.946 -13.848  1.00  0.00    +0.033 A 
ATOM     45  C   UNL     1       3.304  12.162 -15.248  1.00  0.00    +0.088 A 
ATOM     46  C   UNL     1       1.447  10.929 -14.288  1.00  0.00    +0.088 A 
ATOM     47  C   UNL     1       1.935  12.037 -14.988  1.00  0.00    +0.269 A 
BRANCH  47  48
ATOM     48  N   UNL     1       1.006  13.074 -15.454  1.00  0.00    +0.062 N 
ATOM     49  O   UNL     1       1.487  14.067 -16.018  1.00  0.00    -0.258 OA
ATOM     50  O   UNL     1      -0.204  12.896 -15.254  1.00  0.00    -0.258 OA
ENDBRANCH  47  48
ENDBRANCH  40  42
ENDBRANCH  30  38
ENDBRANCH  28  30
ENDBRANCH  23  26
ENDBRANCH  19  21
ENDBRANCH   1  19
TORSDOF 16
ENDMDL
