MODEL 1
REMARK VINA RESULT:    -8.722      0.000      0.000
REMARK INTER + INTRA:         -18.925
REMARK INTER:                 -16.626
REMARK INTRA:                  -2.299
REMARK UNBOUND:                -2.299
REMARK SMILES C[C@H](NC(=O)CCC(=O)O)C(=O)N[C@@H](C)C(=O)N1CCC[C@@H]1C(=O)N[C@H](Cc1ccccc1)C(=O)Nc1ccc([N+](=O)[O-])cc1
REMARK SMILES IDX 14 1 15 2 13 3 11 4 12 5 2 7 1 8 3 9 4 10 5 11 6 13 7 14
REMARK SMILES IDX 8 15 9 16 10 17 16 19 17 20 18 21 19 22 22 23 20 24 21 25
REMARK SMILES IDX 23 26 24 27 25 28 26 30 27 31 28 32 29 33 33 34 30 35 32 36
REMARK SMILES IDX 31 37 34 38 35 39 36 40 37 42 38 43 45 44 39 45 44 46 40 47
REMARK SMILES IDX 41 48 42 49 43 50
REMARK H PARENT 13 6 3 12 10 18 25 29 36 41
ROOT
ATOM      1  C   UNL     1      -9.812   5.691   3.805  1.00  0.00    +0.168 C 
ATOM      2  C   UNL     1     -10.320   4.271   3.578  1.00  0.00    +0.041 C 
ENDROOT
BRANCH   1   3
ATOM      3  N   UNL     1      -9.791   6.007   5.229  1.00  0.00    -0.343 N 
ATOM      4  C   UNL     1      -8.719   6.603   5.855  1.00  0.00    +0.242 C 
ATOM      5  O   UNL     1      -7.689   6.898   5.255  1.00  0.00    -0.273 OA
ATOM      6  H   UNL     1     -10.673   5.937   5.733  1.00  0.00    +0.164 HD
BRANCH   4   7
ATOM      7  C   UNL     1      -8.993   6.979   7.325  1.00  0.00    +0.168 C 
ATOM      8  C   UNL     1     -10.449   7.374   7.534  1.00  0.00    +0.041 C 
BRANCH   7   9
ATOM      9  N   UNL     1      -8.090   8.054   7.745  1.00  0.00    -0.345 N 
ATOM     10  C   UNL     1      -8.395   9.378   7.525  1.00  0.00    +0.221 C 
ATOM     11  O   UNL     1      -9.470   9.756   7.076  1.00  0.00    -0.275 OA
ATOM     12  H   UNL     1      -7.128   7.801   7.940  1.00  0.00    +0.164 HD
BRANCH  10  13
ATOM     13  C   UNL     1      -7.287  10.322   7.947  1.00  0.00    +0.111 C 
BRANCH  13  14
ATOM     14  C   UNL     1      -6.001   9.573   8.271  1.00  0.00    +0.132 C 
BRANCH  14  15
ATOM     15  C   UNL     1      -5.146   9.419   7.044  1.00  0.00    +0.303 C 
ATOM     16  O   UNL     1      -4.547  10.300   6.452  1.00  0.00    -0.252 OA
BRANCH  15  17
ATOM     17  O   UNL     1      -5.135   8.152   6.588  1.00  0.00    -0.481 OA
ATOM     18  H   UNL     1      -4.690   7.646   7.300  1.00  0.00    +0.296 HD
ENDBRANCH  15  17
ENDBRANCH  14  15
ENDBRANCH  13  14
ENDBRANCH  10  13
ENDBRANCH   7   9
ENDBRANCH   4   7
ENDBRANCH   1   3
BRANCH   1  19
ATOM     19  C   UNL     1     -10.750   6.710   3.126  1.00  0.00    +0.245 C 
ATOM     20  O   UNL     1     -11.656   6.325   2.378  1.00  0.00    -0.272 OA
BRANCH  19  21
ATOM     21  N   UNL     1     -10.525   8.049   3.347  1.00  0.00    -0.329 N 
ATOM     22  C   UNL     1     -11.356   8.985   4.089  1.00  0.00    +0.120 C 
ATOM     23  C   UNL     1      -9.388   8.720   2.727  1.00  0.00    +0.174 C 
ATOM     24  C   UNL     1     -10.743  10.354   3.821  1.00  0.00    +0.024 C 
ATOM     25  C   UNL     1      -9.285  10.036   3.497  1.00  0.00    +0.037 C 
BRANCH  23  26
ATOM     26  C   UNL     1      -9.638   8.993   1.227  1.00  0.00    +0.243 C 
ATOM     27  O   UNL     1     -10.755   9.176   0.745  1.00  0.00    -0.273 OA
ATOM     28  N   UNL     1      -8.481   9.071   0.470  1.00  0.00    -0.342 N 
ATOM     29  H   UNL     1      -7.627   9.281   0.975  1.00  0.00    +0.164 HD
BRANCH  28  30
ATOM     30  C   UNL     1      -8.536   9.594  -0.897  1.00  0.00    +0.176 C 
BRANCH  30  31
ATOM     31  C   UNL     1      -7.374   9.038  -1.733  1.00  0.00    +0.070 C 
BRANCH  31  32
ATOM     32  C   UNL     1      -7.404   9.495  -3.173  1.00  0.00    -0.045 A 
ATOM     33  C   UNL     1      -8.393   9.029  -4.049  1.00  0.00    +0.004 A 
ATOM     34  C   UNL     1      -6.416  10.363  -3.660  1.00  0.00    +0.004 A 
ATOM     35  C   UNL     1      -8.389   9.415  -5.390  1.00  0.00    +0.000 A 
ATOM     36  C   UNL     1      -6.415  10.748  -5.001  1.00  0.00    +0.000 A 
ATOM     37  C   UNL     1      -7.398  10.273  -5.865  1.00  0.00    +0.000 A 
ENDBRANCH  31  32
ENDBRANCH  30  31
BRANCH  30  38
ATOM     38  C   UNL     1      -8.444  11.137  -0.790  1.00  0.00    +0.247 C 
ATOM     39  O   UNL     1      -9.309  11.850  -1.299  1.00  0.00    -0.272 OA
ATOM     40  N   UNL     1      -7.361  11.572  -0.047  1.00  0.00    -0.324 N 
ATOM     41  H   UNL     1      -6.768  10.852   0.354  1.00  0.00    +0.170 HD
BRANCH  40  42
ATOM     42  C   UNL     1      -7.009  12.898   0.274  1.00  0.00    +0.041 A 
ATOM     43  C   UNL     1      -7.361  13.535   1.467  1.00  0.00    +0.033 A 
ATOM     44  C   UNL     1      -6.260  13.602  -0.681  1.00  0.00    +0.033 A 
ATOM     45  C   UNL     1      -6.971  14.857   1.712  1.00  0.00    +0.088 A 
ATOM     46  C   UNL     1      -5.864  14.924  -0.447  1.00  0.00    +0.088 A 
ATOM     47  C   UNL     1      -6.222  15.548   0.752  1.00  0.00    +0.269 A 
BRANCH  47  48
ATOM     48  N   UNL     1      -5.810  16.934   1.006  1.00  0.00    +0.062 N 
ATOM     49  O   UNL     1      -5.977  17.384   2.149  1.00  0.00    -0.258 OA
ATOM     50  O   UNL     1      -5.322  17.572   0.063  1.00  0.00    -0.258 OA
ENDBRANCH  47  48
ENDBRANCH  40  42
ENDBRANCH  30  38
ENDBRANCH  28  30
ENDBRANCH  23  26
ENDBRANCH  19  21
ENDBRANCH   1  19
TORSDOF 16
ENDMDL
MODEL 2
REMARK VINA RESULT:    -8.686      2.058      4.253
REMARK INTER + INTRA:         -18.855
REMARK INTER:                 -15.022
REMARK INTRA:                  -3.833
REMARK UNBOUND:                -2.299
REMARK SMILES C[C@H](NC(=O)CCC(=O)O)C(=O)N[C@@H](C)C(=O)N1CCC[C@@H]1C(=O)N[C@H](Cc1ccccc1)C(=O)Nc1ccc([N+](=O)[O-])cc1
REMARK SMILES IDX 14 1 15 2 13 3 11 4 12 5 2 7 1 8 3 9 4 10 5 11 6 13 7 14
REMARK SMILES IDX 8 15 9 16 10 17 16 19 17 20 18 21 19 22 22 23 20 24 21 25
REMARK SMILES IDX 23 26 24 27 25 28 26 30 27 31 28 32 29 33 33 34 30 35 32 36
REMARK SMILES IDX 31 37 34 38 35 39 36 40 37 42 38 43 45 44 39 45 44 46 40 47
REMARK SMILES IDX 41 48 42 49 43 50
REMARK H PARENT 13 6 3 12 10 18 25 29 36 41
ROOT
ATOM      1  C   UNL     1      -9.948   7.861   7.405  1.00  0.00    +0.168 C 
ATOM      2  C   UNL     1      -9.825   6.421   7.892  1.00  0.00    +0.041 C 
ENDROOT
BRANCH   1   3
ATOM      3  N   UNL     1     -10.931   7.957   6.332  1.00  0.00    -0.343 N 
ATOM      4  C   UNL     1     -12.136   8.609   6.468  1.00  0.00    +0.242 C 
ATOM      5  O   UNL     1     -12.479   9.146   7.518  1.00  0.00    -0.273 OA
ATOM      6  H   UNL     1     -10.631   7.678   5.400  1.00  0.00    +0.164 HD
BRANCH   4   7
ATOM      7  C   UNL     1     -12.935   8.713   5.152  1.00  0.00    +0.168 C 
ATOM      8  C   UNL     1     -14.430   8.568   5.400  1.00  0.00    +0.041 C 
BRANCH   7   9
ATOM      9  N   UNL     1     -12.460   7.710   4.196  1.00  0.00    -0.345 N 
ATOM     10  C   UNL     1     -12.262   8.017   2.869  1.00  0.00    +0.221 C 
ATOM     11  O   UNL     1     -12.354   9.153   2.419  1.00  0.00    -0.275 OA
ATOM     12  H   UNL     1     -12.550   6.736   4.463  1.00  0.00    +0.164 HD
BRANCH  10  13
ATOM     13  C   UNL     1     -11.863   6.818   2.033  1.00  0.00    +0.111 C 
BRANCH  13  14
ATOM     14  C   UNL     1     -10.355   6.602   2.041  1.00  0.00    +0.132 C 
BRANCH  14  15
ATOM     15  C   UNL     1      -9.938   5.779   3.228  1.00  0.00    +0.303 C 
ATOM     16  O   UNL     1     -10.160   4.595   3.416  1.00  0.00    -0.252 OA
BRANCH  15  17
ATOM     17  O   UNL     1      -9.299   6.515   4.158  1.00  0.00    -0.481 OA
ATOM     18  H   UNL     1      -8.519   5.972   4.398  1.00  0.00    +0.296 HD
ENDBRANCH  15  17
ENDBRANCH  14  15
ENDBRANCH  13  14
ENDBRANCH  10  13
ENDBRANCH   7   9
ENDBRANCH   4   7
ENDBRANCH   1   3
BRANCH   1  19
ATOM     19  C   UNL     1      -8.602   8.350   6.835  1.00  0.00    +0.245 C 
ATOM     20  O   UNL     1      -7.662   7.561   6.683  1.00  0.00    -0.272 OA
BRANCH  19  21
ATOM     21  N   UNL     1      -8.467   9.687   6.539  1.00  0.00    -0.329 N 
ATOM     22  C   UNL     1      -9.221  10.805   7.086  1.00  0.00    +0.120 C 
ATOM     23  C   UNL     1      -7.542  10.125   5.499  1.00  0.00    +0.174 C 
ATOM     24  C   UNL     1      -8.805  12.008   6.248  1.00  0.00    +0.024 C 
ATOM     25  C   UNL     1      -7.416  11.629   5.741  1.00  0.00    +0.037 C 
BRANCH  23  26
ATOM     26  C   UNL     1      -8.107   9.853   4.086  1.00  0.00    +0.243 C 
ATOM     27  O   UNL     1      -9.278   9.546   3.868  1.00  0.00    -0.273 OA
ATOM     28  N   UNL     1      -7.187  10.041   3.069  1.00  0.00    -0.342 N 
ATOM     29  H   UNL     1      -6.393  10.634   3.285  1.00  0.00    +0.164 HD
BRANCH  28  30
ATOM     30  C   UNL     1      -7.639  10.095   1.676  1.00  0.00    +0.176 C 
BRANCH  30  31
ATOM     31  C   UNL     1      -6.619   9.410   0.754  1.00  0.00    +0.070 C 
BRANCH  31  32
ATOM     32  C   UNL     1      -7.221   8.930  -0.547  1.00  0.00    -0.045 A 
ATOM     33  C   UNL     1      -7.253   9.769  -1.669  1.00  0.00    +0.004 A 
ATOM     34  C   UNL     1      -7.788   7.652  -0.636  1.00  0.00    +0.004 A 
ATOM     35  C   UNL     1      -7.852   9.341  -2.855  1.00  0.00    +0.000 A 
ATOM     36  C   UNL     1      -8.386   7.225  -1.822  1.00  0.00    +0.000 A 
ATOM     37  C   UNL     1      -8.421   8.070  -2.929  1.00  0.00    +0.000 A 
ENDBRANCH  31  32
ENDBRANCH  30  31
BRANCH  30  38
ATOM     38  C   UNL     1      -7.788  11.592   1.311  1.00  0.00    +0.247 C 
ATOM     39  O   UNL     1      -8.903  12.111   1.248  1.00  0.00    -0.272 OA
ATOM     40  N   UNL     1      -6.577  12.238   1.132  1.00  0.00    -0.324 N 
ATOM     41  H   UNL     1      -5.741  11.678   1.274  1.00  0.00    +0.170 HD
BRANCH  40  42
ATOM     42  C   UNL     1      -6.357  13.596   0.833  1.00  0.00    +0.041 A 
ATOM     43  C   UNL     1      -6.629  14.646   1.714  1.00  0.00    +0.033 A 
ATOM     44  C   UNL     1      -5.833  13.888  -0.435  1.00  0.00    +0.033 A 
ATOM     45  C   UNL     1      -6.381  15.973   1.341  1.00  0.00    +0.088 A 
ATOM     46  C   UNL     1      -5.580  15.210  -0.820  1.00  0.00    +0.088 A 
ATOM     47  C   UNL     1      -5.856  16.250   0.074  1.00  0.00    +0.269 A 
BRANCH  47  48
ATOM     48  N   UNL     1      -5.593  17.640  -0.320  1.00  0.00    +0.062 N 
ATOM     49  O   UNL     1      -6.469  18.482  -0.078  1.00  0.00    -0.258 OA
ATOM     50  O   UNL     1      -4.512  17.888  -0.873  1.00  0.00    -0.258 OA
ENDBRANCH  47  48
ENDBRANCH  40  42
ENDBRANCH  30  38
ENDBRANCH  28  30
ENDBRANCH  23  26
ENDBRANCH  19  21
ENDBRANCH   1  19
TORSDOF 16
ENDMDL
MODEL 3
REMARK VINA RESULT:    -8.419      1.931      2.987
REMARK INTER + INTRA:         -18.347
REMARK INTER:                 -15.870
REMARK INTRA:                  -2.477
REMARK UNBOUND:                -2.299
REMARK SMILES C[C@H](NC(=O)CCC(=O)O)C(=O)N[C@@H](C)C(=O)N1CCC[C@@H]1C(=O)N[C@H](Cc1ccccc1)C(=O)Nc1ccc([N+](=O)[O-])cc1
REMARK SMILES IDX 14 1 15 2 13 3 11 4 12 5 2 7 1 8 3 9 4 10 5 11 6 13 7 14
REMARK SMILES IDX 8 15 9 16 10 17 16 19 17 20 18 21 19 22 22 23 20 24 21 25
REMARK SMILES IDX 23 26 24 27 25 28 26 30 27 31 28 32 29 33 33 34 30 35 32 36
REMARK SMILES IDX 31 37 34 38 35 39 36 40 37 42 38 43 45 44 39 45 44 46 40 47
REMARK SMILES IDX 41 48 42 49 43 50
REMARK H PARENT 13 6 3 12 10 18 25 29 36 41
ROOT
ATOM      1  C   UNL     1     -12.638   8.660   5.363  1.00  0.00    +0.168 C 
ATOM      2  C   UNL     1     -14.146   8.881   5.349  1.00  0.00    +0.041 C 
ENDROOT
BRANCH   1   3
ATOM      3  N   UNL     1     -11.955   9.818   5.928  1.00  0.00    -0.343 N 
ATOM      4  C   UNL     1     -11.091   9.739   6.997  1.00  0.00    +0.242 C 
ATOM      5  O   UNL     1     -10.845   8.679   7.567  1.00  0.00    -0.273 OA
ATOM      6  H   UNL     1     -11.992  10.685   5.395  1.00  0.00    +0.164 HD
BRANCH   4   7
ATOM      7  C   UNL     1     -10.372  11.067   7.311  1.00  0.00    +0.168 C 
ATOM      8  C   UNL     1     -11.138  12.257   6.749  1.00  0.00    +0.041 C 
BRANCH   7   9
ATOM      9  N   UNL     1      -9.001  11.031   6.796  1.00  0.00    -0.345 N 
ATOM     10  C   UNL     1      -7.917  11.231   7.619  1.00  0.00    +0.221 C 
ATOM     11  O   UNL     1      -8.005  11.338   8.836  1.00  0.00    -0.275 OA
ATOM     12  H   UNL     1      -8.880  11.137   5.795  1.00  0.00    +0.164 HD
BRANCH  10  13
ATOM     13  C   UNL     1      -6.598  11.250   6.872  1.00  0.00    +0.111 C 
BRANCH  13  14
ATOM     14  C   UNL     1      -6.307   9.911   6.208  1.00  0.00    +0.132 C 
BRANCH  14  15
ATOM     15  C   UNL     1      -4.963   9.384   6.630  1.00  0.00    +0.303 C 
ATOM     16  O   UNL     1      -4.704   8.765   7.647  1.00  0.00    -0.252 OA
BRANCH  15  17
ATOM     17  O   UNL     1      -3.991   9.719   5.760  1.00  0.00    -0.481 OA
ATOM     18  H   UNL     1      -3.162   9.481   6.226  1.00  0.00    +0.296 HD
ENDBRANCH  15  17
ENDBRANCH  14  15
ENDBRANCH  13  14
ENDBRANCH  10  13
ENDBRANCH   7   9
ENDBRANCH   4   7
ENDBRANCH   1   3
BRANCH   1  19
ATOM     19  C   UNL     1     -12.110   8.476   3.926  1.00  0.00    +0.245 C 
ATOM     20  O   UNL     1     -12.640   9.075   2.983  1.00  0.00    -0.272 OA
BRANCH  19  21
ATOM     21  N   UNL     1     -11.066   7.604   3.723  1.00  0.00    -0.329 N 
ATOM     22  C   UNL     1      -9.709   7.695   4.241  1.00  0.00    +0.120 C 
ATOM     23  C   UNL     1     -11.217   6.467   2.821  1.00  0.00    +0.174 C 
ATOM     24  C   UNL     1      -8.939   6.593   3.525  1.00  0.00    +0.024 C 
ATOM     25  C   UNL     1     -10.020   5.579   3.159  1.00  0.00    +0.037 C 
BRANCH  23  26
ATOM     26  C   UNL     1     -11.160   6.905   1.340  1.00  0.00    +0.243 C 
ATOM     27  O   UNL     1     -12.152   6.996   0.619  1.00  0.00    -0.273 OA
ATOM     28  N   UNL     1      -9.892   7.246   0.904  1.00  0.00    -0.342 N 
ATOM     29  H   UNL     1      -9.223   7.502   1.622  1.00  0.00    +0.164 HD
BRANCH  28  30
ATOM     30  C   UNL     1      -9.721   7.940  -0.375  1.00  0.00    +0.176 C 
BRANCH  30  31
ATOM     31  C   UNL     1      -8.440   7.463  -1.078  1.00  0.00    +0.070 C 
BRANCH  31  32
ATOM     32  C   UNL     1      -8.130   8.236  -2.339  1.00  0.00    -0.045 A 
ATOM     33  C   UNL     1      -8.967   8.137  -3.459  1.00  0.00    +0.004 A 
ATOM     34  C   UNL     1      -6.979   9.031  -2.417  1.00  0.00    +0.004 A 
ATOM     35  C   UNL     1      -8.652   8.814  -4.638  1.00  0.00    +0.000 A 
ATOM     36  C   UNL     1      -6.666   9.707  -3.597  1.00  0.00    +0.000 A 
ATOM     37  C   UNL     1      -7.500   9.596  -4.707  1.00  0.00    +0.000 A 
ENDBRANCH  31  32
ENDBRANCH  30  31
BRANCH  30  38
ATOM     38  C   UNL     1      -9.640   9.453  -0.057  1.00  0.00    +0.247 C 
ATOM     39  O   UNL     1     -10.413  10.246  -0.596  1.00  0.00    -0.272 OA
ATOM     40  N   UNL     1      -8.684   9.765   0.893  1.00  0.00    -0.324 N 
ATOM     41  H   UNL     1      -8.163   8.985   1.284  1.00  0.00    +0.170 HD
BRANCH  40  42
ATOM     42  C   UNL     1      -8.381  11.030   1.432  1.00  0.00    +0.041 A 
ATOM     43  C   UNL     1      -8.668  11.412   2.745  1.00  0.00    +0.033 A 
ATOM     44  C   UNL     1      -7.752  11.948   0.578  1.00  0.00    +0.033 A 
ATOM     45  C   UNL     1      -8.334  12.690   3.207  1.00  0.00    +0.088 A 
ATOM     46  C   UNL     1      -7.411  13.229   1.027  1.00  0.00    +0.088 A 
ATOM     47  C   UNL     1      -7.705  13.596   2.345  1.00  0.00    +0.269 A 
BRANCH  47  48
ATOM     48  N   UNL     1      -7.350  14.937   2.826  1.00  0.00    +0.062 N 
ATOM     49  O   UNL     1      -6.600  15.622   2.116  1.00  0.00    -0.258 OA
ATOM     50  O   UNL     1      -7.818  15.302   3.913  1.00  0.00    -0.258 OA
ENDBRANCH  47  48
ENDBRANCH  40  42
ENDBRANCH  30  38
ENDBRANCH  28  30
ENDBRANCH  23  26
ENDBRANCH  19  21
ENDBRANCH   1  19
TORSDOF 16
ENDMDL
MODEL 4
REMARK VINA RESULT:    -8.384      2.056      4.883
REMARK INTER + INTRA:         -18.279
REMARK INTER:                 -14.208
REMARK INTRA:                  -4.072
REMARK UNBOUND:                -2.299
REMARK SMILES C[C@H](NC(=O)CCC(=O)O)C(=O)N[C@@H](C)C(=O)N1CCC[C@@H]1C(=O)N[C@H](Cc1ccccc1)C(=O)Nc1ccc([N+](=O)[O-])cc1
REMARK SMILES IDX 14 1 15 2 13 3 11 4 12 5 2 7 1 8 3 9 4 10 5 11 6 13 7 14
REMARK SMILES IDX 8 15 9 16 10 17 16 19 17 20 18 21 19 22 22 23 20 24 21 25
REMARK SMILES IDX 23 26 24 27 25 28 26 30 27 31 28 32 29 33 33 34 30 35 32 36
REMARK SMILES IDX 31 37 34 38 35 39 36 40 37 42 38 43 45 44 39 45 44 46 40 47
REMARK SMILES IDX 41 48 42 49 43 50
REMARK H PARENT 13 6 3 12 10 18 25 29 36 41
ROOT
ATOM      1  C   UNL     1      -9.955   7.538   6.595  1.00  0.00    +0.168 C 
ATOM      2  C   UNL     1      -9.810   6.319   7.500  1.00  0.00    +0.041 C 
ENDROOT
BRANCH   1   3
ATOM      3  N   UNL     1     -10.399   7.139   5.264  1.00  0.00    -0.343 N 
ATOM      4  C   UNL     1     -11.492   7.692   4.635  1.00  0.00    +0.242 C 
ATOM      5  O   UNL     1     -12.187   8.556   5.162  1.00  0.00    -0.273 OA
ATOM      6  H   UNL     1      -9.767   6.554   4.720  1.00  0.00    +0.164 HD
BRANCH   4   7
ATOM      7  C   UNL     1     -11.667   7.223   3.176  1.00  0.00    +0.168 C 
ATOM      8  C   UNL     1     -10.724   6.074   2.846  1.00  0.00    +0.041 C 
BRANCH   7   9
ATOM      9  N   UNL     1     -11.467   8.349   2.259  1.00  0.00    -0.345 N 
ATOM     10  C   UNL     1     -12.531   9.026   1.708  1.00  0.00    +0.221 C 
ATOM     11  O   UNL     1     -13.697   8.820   2.022  1.00  0.00    -0.275 OA
ATOM     12  H   UNL     1     -10.555   8.436   1.825  1.00  0.00    +0.164 HD
BRANCH  10  13
ATOM     13  C   UNL     1     -12.109  10.089   0.714  1.00  0.00    +0.111 C 
BRANCH  13  14
ATOM     14  C   UNL     1     -10.996   9.595  -0.202  1.00  0.00    +0.132 C 
BRANCH  14  15
ATOM     15  C   UNL     1     -11.515   9.353  -1.592  1.00  0.00    +0.303 C 
ATOM     16  O   UNL     1     -11.797   8.279  -2.093  1.00  0.00    -0.252 OA
BRANCH  15  17
ATOM     17  O   UNL     1     -11.600  10.491  -2.308  1.00  0.00    -0.481 OA
ATOM     18  H   UNL     1     -10.697  10.869  -2.264  1.00  0.00    +0.296 HD
ENDBRANCH  15  17
ENDBRANCH  14  15
ENDBRANCH  13  14
ENDBRANCH  10  13
ENDBRANCH   7   9
ENDBRANCH   4   7
ENDBRANCH   1   3
BRANCH   1  19
ATOM     19  C   UNL     1      -8.597   8.248   6.430  1.00  0.00    +0.245 C 
ATOM     20  O   UNL     1      -7.545   7.597   6.446  1.00  0.00    -0.272 OA
BRANCH  19  21
ATOM     21  N   UNL     1      -8.588   9.617   6.303  1.00  0.00    -0.329 N 
ATOM     22  C   UNL     1      -9.415  10.586   7.006  1.00  0.00    +0.120 C 
ATOM     23  C   UNL     1      -7.743  10.262   5.304  1.00  0.00    +0.174 C 
ATOM     24  C   UNL     1      -9.135  11.917   6.318  1.00  0.00    +0.024 C 
ATOM     25  C   UNL     1      -7.738  11.730   5.732  1.00  0.00    +0.037 C 
BRANCH  23  26
ATOM     26  C   UNL     1      -8.332  10.119   3.883  1.00  0.00    +0.243 C 
ATOM     27  O   UNL     1      -9.535  10.009   3.653  1.00  0.00    -0.273 OA
ATOM     28  N   UNL     1      -7.386  10.182   2.874  1.00  0.00    -0.342 N 
ATOM     29  H   UNL     1      -6.509  10.635   3.108  1.00  0.00    +0.164 HD
BRANCH  28  30
ATOM     30  C   UNL     1      -7.812  10.341   1.482  1.00  0.00    +0.176 C 
BRANCH  30  31
ATOM     31  C   UNL     1      -6.760   9.755   0.527  1.00  0.00    +0.070 C 
BRANCH  31  32
ATOM     32  C   UNL     1      -7.353   9.213  -0.753  1.00  0.00    -0.045 A 
ATOM     33  C   UNL     1      -7.741   7.870  -0.846  1.00  0.00    +0.004 A 
ATOM     34  C   UNL     1      -7.487  10.041  -1.876  1.00  0.00    +0.004 A 
ATOM     35  C   UNL     1      -8.243   7.361  -2.045  1.00  0.00    +0.000 A 
ATOM     36  C   UNL     1      -7.990   9.530  -3.073  1.00  0.00    +0.000 A 
ATOM     37  C   UNL     1      -8.365   8.191  -3.158  1.00  0.00    +0.000 A 
ENDBRANCH  31  32
ENDBRANCH  30  31
BRANCH  30  38
ATOM     38  C   UNL     1      -7.988  11.860   1.237  1.00  0.00    +0.247 C 
ATOM     39  O   UNL     1      -9.061  12.307   0.830  1.00  0.00    -0.272 OA
ATOM     40  N   UNL     1      -6.869  12.603   1.571  1.00  0.00    -0.324 N 
ATOM     41  H   UNL     1      -6.079  12.088   1.947  1.00  0.00    +0.170 HD
BRANCH  40  42
ATOM     42  C   UNL     1      -6.709  14.001   1.507  1.00  0.00    +0.041 A 
ATOM     43  C   UNL     1      -6.007  14.663   0.496  1.00  0.00    +0.033 A 
ATOM     44  C   UNL     1      -7.299  14.754   2.533  1.00  0.00    +0.033 A 
ATOM     45  C   UNL     1      -5.894  16.059   0.502  1.00  0.00    +0.088 A 
ATOM     46  C   UNL     1      -7.195  16.149   2.550  1.00  0.00    +0.088 A 
ATOM     47  C   UNL     1      -6.490  16.798   1.530  1.00  0.00    +0.269 A 
BRANCH  47  48
ATOM     48  N   UNL     1      -6.375  18.261   1.539  1.00  0.00    +0.062 N 
ATOM     49  O   UNL     1      -5.422  18.760   2.155  1.00  0.00    -0.258 OA
ATOM     50  O   UNL     1      -7.240  18.911   0.934  1.00  0.00    -0.258 OA
ENDBRANCH  47  48
ENDBRANCH  40  42
ENDBRANCH  30  38
ENDBRANCH  28  30
ENDBRANCH  23  26
ENDBRANCH  19  21
ENDBRANCH   1  19
TORSDOF 16
ENDMDL
MODEL 5
REMARK VINA RESULT:    -8.375      2.279      5.397
REMARK INTER + INTRA:         -18.264
REMARK INTER:                 -14.952
REMARK INTRA:                  -3.312
REMARK UNBOUND:                -2.299
REMARK SMILES C[C@H](NC(=O)CCC(=O)O)C(=O)N[C@@H](C)C(=O)N1CCC[C@@H]1C(=O)N[C@H](Cc1ccccc1)C(=O)Nc1ccc([N+](=O)[O-])cc1
REMARK SMILES IDX 14 1 15 2 13 3 11 4 12 5 2 7 1 8 3 9 4 10 5 11 6 13 7 14
REMARK SMILES IDX 8 15 9 16 10 17 16 19 17 20 18 21 19 22 22 23 20 24 21 25
REMARK SMILES IDX 23 26 24 27 25 28 26 30 27 31 28 32 29 33 33 34 30 35 32 36
REMARK SMILES IDX 31 37 34 38 35 39 36 40 37 42 38 43 45 44 39 45 44 46 40 47
REMARK SMILES IDX 41 48 42 49 43 50
REMARK H PARENT 13 6 3 12 10 18 25 29 36 41
ROOT
ATOM      1  C   UNL     1      -9.637   8.915   2.248  1.00  0.00    +0.168 C 
ATOM      2  C   UNL     1     -10.544  10.015   1.707  1.00  0.00    +0.041 C 
ENDROOT
BRANCH   1   3
ATOM      3  N   UNL     1      -9.721   8.850   3.703  1.00  0.00    -0.343 N 
ATOM      4  C   UNL     1     -10.383   7.849   4.377  1.00  0.00    +0.242 C 
ATOM      5  O   UNL     1     -10.970   6.941   3.796  1.00  0.00    -0.273 OA
ATOM      6  H   UNL     1      -9.117   9.478   4.232  1.00  0.00    +0.164 HD
BRANCH   4   7
ATOM      7  C   UNL     1     -10.199   7.909   5.908  1.00  0.00    +0.168 C 
ATOM      8  C   UNL     1     -11.258   8.787   6.559  1.00  0.00    +0.041 C 
BRANCH   7   9
ATOM      9  N   UNL     1      -8.850   8.379   6.234  1.00  0.00    -0.345 N 
ATOM     10  C   UNL     1      -7.732   7.659   5.882  1.00  0.00    +0.221 C 
ATOM     11  O   UNL     1      -7.770   6.651   5.186  1.00  0.00    -0.275 OA
ATOM     12  H   UNL     1      -8.769   9.086   6.956  1.00  0.00    +0.164 HD
BRANCH  10  13
ATOM     13  C   UNL     1      -6.444   8.270   6.397  1.00  0.00    +0.111 C 
BRANCH  13  14
ATOM     14  C   UNL     1      -6.578   9.772   6.609  1.00  0.00    +0.132 C 
BRANCH  14  15
ATOM     15  C   UNL     1      -6.666  10.101   8.074  1.00  0.00    +0.303 C 
ATOM     16  O   UNL     1      -5.737  10.262   8.847  1.00  0.00    -0.252 OA
BRANCH  15  17
ATOM     17  O   UNL     1      -7.940  10.157   8.507  1.00  0.00    -0.481 OA
ATOM     18  H   UNL     1      -7.873  10.566   9.395  1.00  0.00    +0.296 HD
ENDBRANCH  15  17
ENDBRANCH  14  15
ENDBRANCH  13  14
ENDBRANCH  10  13
ENDBRANCH   7   9
ENDBRANCH   4   7
ENDBRANCH   1   3
BRANCH   1  19
ATOM     19  C   UNL     1      -8.166   9.209   1.889  1.00  0.00    +0.245 C 
ATOM     20  O   UNL     1      -7.402   9.697   2.730  1.00  0.00    -0.272 OA
BRANCH  19  21
ATOM     21  N   UNL     1      -7.745   8.951   0.606  1.00  0.00    -0.329 N 
ATOM     22  C   UNL     1      -6.725   8.008   0.171  1.00  0.00    +0.120 C 
ATOM     23  C   UNL     1      -8.263   9.729  -0.514  1.00  0.00    +0.174 C 
ATOM     24  C   UNL     1      -6.525   8.299  -1.311  1.00  0.00    +0.024 C 
ATOM     25  C   UNL     1      -7.856   8.911  -1.739  1.00  0.00    +0.037 C 
BRANCH  23  26
ATOM     26  C   UNL     1      -7.625  11.136  -0.571  1.00  0.00    +0.243 C 
ATOM     27  O   UNL     1      -7.347  11.715  -1.620  1.00  0.00    -0.273 OA
ATOM     28  N   UNL     1      -7.443  11.720   0.671  1.00  0.00    -0.342 N 
ATOM     29  H   UNL     1      -8.018  11.362   1.425  1.00  0.00    +0.164 HD
BRANCH  28  30
ATOM     30  C   UNL     1      -7.114  13.145   0.767  1.00  0.00    +0.176 C 
BRANCH  30  31
ATOM     31  C   UNL     1      -5.609  13.364   0.550  1.00  0.00    +0.070 C 
BRANCH  31  32
ATOM     32  C   UNL     1      -5.303  14.498  -0.401  1.00  0.00    -0.045 A 
ATOM     33  C   UNL     1      -4.698  14.247  -1.639  1.00  0.00    +0.004 A 
ATOM     34  C   UNL     1      -5.588  15.822  -0.037  1.00  0.00    +0.004 A 
ATOM     35  C   UNL     1      -4.373  15.301  -2.494  1.00  0.00    +0.000 A 
ATOM     36  C   UNL     1      -5.262  16.874  -0.894  1.00  0.00    +0.000 A 
ATOM     37  C   UNL     1      -4.653  16.614  -2.120  1.00  0.00    +0.000 A 
ENDBRANCH  31  32
ENDBRANCH  30  31
BRANCH  30  38
ATOM     38  C   UNL     1      -7.536  13.608   2.183  1.00  0.00    +0.247 C 
ATOM     39  O   UNL     1      -7.400  14.784   2.521  1.00  0.00    -0.272 OA
ATOM     40  N   UNL     1      -8.103  12.600   2.944  1.00  0.00    -0.324 N 
ATOM     41  H   UNL     1      -8.194  11.693   2.497  1.00  0.00    +0.170 HD
BRANCH  40  42
ATOM     42  C   UNL     1      -8.624  12.692   4.249  1.00  0.00    +0.041 A 
ATOM     43  C   UNL     1      -7.860  13.003   5.377  1.00  0.00    +0.033 A 
ATOM     44  C   UNL     1      -9.997  12.452   4.401  1.00  0.00    +0.033 A 
ATOM     45  C   UNL     1      -8.453  13.077   6.644  1.00  0.00    +0.088 A 
ATOM     46  C   UNL     1     -10.603  12.524   5.661  1.00  0.00    +0.088 A 
ATOM     47  C   UNL     1      -9.825  12.837   6.781  1.00  0.00    +0.269 A 
BRANCH  47  48
ATOM     48  N   UNL     1     -10.451  12.916   8.106  1.00  0.00    +0.062 N 
ATOM     49  O   UNL     1     -11.370  13.733   8.261  1.00  0.00    -0.258 OA
ATOM     50  O   UNL     1     -10.023  12.162   8.992  1.00  0.00    -0.258 OA
ENDBRANCH  47  48
ENDBRANCH  40  42
ENDBRANCH  30  38
ENDBRANCH  28  30
ENDBRANCH  23  26
ENDBRANCH  19  21
ENDBRANCH   1  19
TORSDOF 16
ENDMDL
MODEL 6
REMARK VINA RESULT:    -8.216      1.540      2.573
REMARK INTER + INTRA:         -17.960
REMARK INTER:                 -15.723
REMARK INTRA:                  -2.236
REMARK UNBOUND:                -2.299
REMARK SMILES C[C@H](NC(=O)CCC(=O)O)C(=O)N[C@@H](C)C(=O)N1CCC[C@@H]1C(=O)N[C@H](Cc1ccccc1)C(=O)Nc1ccc([N+](=O)[O-])cc1
REMARK SMILES IDX 14 1 15 2 13 3 11 4 12 5 2 7 1 8 3 9 4 10 5 11 6 13 7 14
REMARK SMILES IDX 8 15 9 16 10 17 16 19 17 20 18 21 19 22 22 23 20 24 21 25
REMARK SMILES IDX 23 26 24 27 25 28 26 30 27 31 28 32 29 33 33 34 30 35 32 36
REMARK SMILES IDX 31 37 34 38 35 39 36 40 37 42 38 43 45 44 39 45 44 46 40 47
REMARK SMILES IDX 41 48 42 49 43 50
REMARK H PARENT 13 6 3 12 10 18 25 29 36 41
ROOT
ATOM      1  C   UNL     1     -12.600   8.352   4.532  1.00  0.00    +0.168 C 
ATOM      2  C   UNL     1     -13.897   9.062   4.905  1.00  0.00    +0.041 C 
ENDROOT
BRANCH   1   3
ATOM      3  N   UNL     1     -11.752   8.184   5.707  1.00  0.00    -0.343 N 
ATOM      4  C   UNL     1     -11.512   9.191   6.615  1.00  0.00    +0.242 C 
ATOM      5  O   UNL     1     -11.987  10.316   6.490  1.00  0.00    -0.273 OA
ATOM      6  H   UNL     1     -11.472   7.235   5.946  1.00  0.00    +0.164 HD
BRANCH   4   7
ATOM      7  C   UNL     1     -10.716   8.730   7.853  1.00  0.00    +0.168 C 
ATOM      8  C   UNL     1     -11.215   9.413   9.119  1.00  0.00    +0.041 C 
BRANCH   7   9
ATOM      9  N   UNL     1      -9.285   8.975   7.650  1.00  0.00    -0.345 N 
ATOM     10  C   UNL     1      -8.489   8.076   6.978  1.00  0.00    +0.221 C 
ATOM     11  O   UNL     1      -8.925   7.082   6.410  1.00  0.00    -0.275 OA
ATOM     12  H   UNL     1      -8.845   9.666   8.247  1.00  0.00    +0.164 HD
BRANCH  10  13
ATOM     13  C   UNL     1      -7.027   8.472   6.963  1.00  0.00    +0.111 C 
BRANCH  13  14
ATOM     14  C   UNL     1      -6.848   9.976   7.125  1.00  0.00    +0.132 C 
BRANCH  14  15
ATOM     15  C   UNL     1      -6.323  10.308   8.495  1.00  0.00    +0.303 C 
ATOM     16  O   UNL     1      -5.219  10.050   8.940  1.00  0.00    -0.252 OA
BRANCH  15  17
ATOM     17  O   UNL     1      -7.252  10.911   9.262  1.00  0.00    -0.481 OA
ATOM     18  H   UNL     1      -7.375  11.788   8.843  1.00  0.00    +0.296 HD
ENDBRANCH  15  17
ENDBRANCH  14  15
ENDBRANCH  13  14
ENDBRANCH  10  13
ENDBRANCH   7   9
ENDBRANCH   4   7
ENDBRANCH   1   3
BRANCH   1  19
ATOM     19  C   UNL     1     -11.805   9.191   3.512  1.00  0.00    +0.245 C 
ATOM     20  O   UNL     1     -12.358  10.099   2.881  1.00  0.00    -0.272 OA
BRANCH  19  21
ATOM     21  N   UNL     1     -10.483   8.875   3.298  1.00  0.00    -0.329 N 
ATOM     22  C   UNL     1      -9.306   9.593   3.761  1.00  0.00    +0.120 C 
ATOM     23  C   UNL     1     -10.120   7.751   2.443  1.00  0.00    +0.174 C 
ATOM     24  C   UNL     1      -8.133   8.925   3.055  1.00  0.00    +0.024 C 
ATOM     25  C   UNL     1      -8.645   7.517   2.765  1.00  0.00    +0.037 C 
BRANCH  23  26
ATOM     26  C   UNL     1     -10.295   8.096   0.946  1.00  0.00    +0.243 C 
ATOM     27  O   UNL     1     -11.387   8.302   0.419  1.00  0.00    -0.273 OA
ATOM     28  N   UNL     1      -9.102   8.212   0.254  1.00  0.00    -0.342 N 
ATOM     29  H   UNL     1      -8.275   8.398   0.811  1.00  0.00    +0.164 HD
BRANCH  28  30
ATOM     30  C   UNL     1      -9.090   8.802  -1.087  1.00  0.00    +0.176 C 
BRANCH  30  31
ATOM     31  C   UNL     1      -7.926   8.235  -1.914  1.00  0.00    +0.070 C 
BRANCH  31  32
ATOM     32  C   UNL     1      -7.796   8.874  -3.277  1.00  0.00    -0.045 A 
ATOM     33  C   UNL     1      -6.735   9.746  -3.556  1.00  0.00    +0.004 A 
ATOM     34  C   UNL     1      -8.758   8.631  -4.267  1.00  0.00    +0.004 A 
ATOM     35  C   UNL     1      -6.644  10.372  -4.800  1.00  0.00    +0.000 A 
ATOM     36  C   UNL     1      -8.664   9.258  -5.510  1.00  0.00    +0.000 A 
ATOM     37  C   UNL     1      -7.610  10.129  -5.775  1.00  0.00    +0.000 A 
ENDBRANCH  31  32
ENDBRANCH  30  31
BRANCH  30  38
ATOM     38  C   UNL     1      -8.935  10.332  -0.902  1.00  0.00    +0.247 C 
ATOM     39  O   UNL     1      -9.738  11.108  -1.422  1.00  0.00    -0.272 OA
ATOM     40  N   UNL     1      -7.876  10.682  -0.082  1.00  0.00    -0.324 N 
ATOM     41  H   UNL     1      -7.340   9.917   0.315  1.00  0.00    +0.170 HD
BRANCH  40  42
ATOM     42  C   UNL     1      -7.484  11.974   0.319  1.00  0.00    +0.041 A 
ATOM     43  C   UNL     1      -6.620  12.792  -0.412  1.00  0.00    +0.033 A 
ATOM     44  C   UNL     1      -8.007  12.446   1.532  1.00  0.00    +0.033 A 
ATOM     45  C   UNL     1      -6.278  14.068   0.054  1.00  0.00    +0.088 A 
ATOM     46  C   UNL     1      -7.675  13.719   2.009  1.00  0.00    +0.088 A 
ATOM     47  C   UNL     1      -6.808  14.527   1.265  1.00  0.00    +0.269 A 
BRANCH  47  48
ATOM     48  N   UNL     1      -6.455  15.865   1.756  1.00  0.00    +0.062 N 
ATOM     49  O   UNL     1      -5.675  16.542   1.071  1.00  0.00    -0.258 OA
ATOM     50  O   UNL     1      -6.955  16.236   2.828  1.00  0.00    -0.258 OA
ENDBRANCH  47  48
ENDBRANCH  40  42
ENDBRANCH  30  38
ENDBRANCH  28  30
ENDBRANCH  23  26
ENDBRANCH  19  21
ENDBRANCH   1  19
TORSDOF 16
ENDMDL
MODEL 7
REMARK VINA RESULT:    -8.159      3.628      6.727
REMARK INTER + INTRA:         -17.852
REMARK INTER:                 -15.585
REMARK INTRA:                  -2.267
REMARK UNBOUND:                -2.299
REMARK SMILES C[C@H](NC(=O)CCC(=O)O)C(=O)N[C@@H](C)C(=O)N1CCC[C@@H]1C(=O)N[C@H](Cc1ccccc1)C(=O)Nc1ccc([N+](=O)[O-])cc1
REMARK SMILES IDX 14 1 15 2 13 3 11 4 12 5 2 7 1 8 3 9 4 10 5 11 6 13 7 14
REMARK SMILES IDX 8 15 9 16 10 17 16 19 17 20 18 21 19 22 22 23 20 24 21 25
REMARK SMILES IDX 23 26 24 27 25 28 26 30 27 31 28 32 29 33 33 34 30 35 32 36
REMARK SMILES IDX 31 37 34 38 35 39 36 40 37 42 38 43 45 44 39 45 44 46 40 47
REMARK SMILES IDX 41 48 42 49 43 50
REMARK H PARENT 13 6 3 12 10 18 25 29 36 41
ROOT
ATOM      1  C   UNL     1     -10.416   7.546   1.885  1.00  0.00    +0.168 C 
ATOM      2  C   UNL     1     -11.909   7.308   1.686  1.00  0.00    +0.041 C 
ENDROOT
BRANCH   1   3
ATOM      3  N   UNL     1     -10.109   7.720   3.301  1.00  0.00    -0.343 N 
ATOM      4  C   UNL     1      -9.659   6.699   4.107  1.00  0.00    +0.242 C 
ATOM      5  O   UNL     1      -9.500   5.555   3.692  1.00  0.00    -0.273 OA
ATOM      6  H   UNL     1     -10.063   8.675   3.652  1.00  0.00    +0.164 HD
BRANCH   4   7
ATOM      7  C   UNL     1      -9.253   7.162   5.522  1.00  0.00    +0.168 C 
ATOM      8  C   UNL     1      -7.738   7.204   5.677  1.00  0.00    +0.041 C 
BRANCH   7   9
ATOM      9  N   UNL     1      -9.862   6.291   6.530  1.00  0.00    -0.345 N 
ATOM     10  C   UNL     1     -10.145   6.745   7.797  1.00  0.00    +0.221 C 
ATOM     11  O   UNL     1     -10.020   7.915   8.138  1.00  0.00    -0.275 OA
ATOM     12  H   UNL     1      -9.810   5.291   6.370  1.00  0.00    +0.164 HD
BRANCH  10  13
ATOM     13  C   UNL     1     -10.681   5.662   8.712  1.00  0.00    +0.111 C 
BRANCH  13  14
ATOM     14  C   UNL     1     -10.026   5.711  10.087  1.00  0.00    +0.132 C 
BRANCH  14  15
ATOM     15  C   UNL     1     -11.064   5.785  11.172  1.00  0.00    +0.303 C 
ATOM     16  O   UNL     1     -10.873   6.000  12.356  1.00  0.00    -0.252 OA
BRANCH  15  17
ATOM     17  O   UNL     1     -12.302   5.527  10.709  1.00  0.00    -0.481 OA
ATOM     18  H   UNL     1     -12.688   6.414  10.553  1.00  0.00    +0.296 HD
ENDBRANCH  15  17
ENDBRANCH  14  15
ENDBRANCH  13  14
ENDBRANCH  10  13
ENDBRANCH   7   9
ENDBRANCH   4   7
ENDBRANCH   1   3
BRANCH   1  19
ATOM     19  C   UNL     1      -9.977   8.835   1.162  1.00  0.00    +0.245 C 
ATOM     20  O   UNL     1     -10.786   9.476   0.480  1.00  0.00    -0.272 OA
BRANCH  19  21
ATOM     21  N   UNL     1      -8.663   9.225   1.266  1.00  0.00    -0.329 N 
ATOM     22  C   UNL     1      -8.142  10.504   1.724  1.00  0.00    +0.120 C 
ATOM     23  C   UNL     1      -7.592   8.349   0.801  1.00  0.00    +0.174 C 
ATOM     24  C   UNL     1      -6.649  10.453   1.423  1.00  0.00    +0.024 C 
ATOM     25  C   UNL     1      -6.335   8.959   1.420  1.00  0.00    +0.037 C 
BRANCH  23  26
ATOM     26  C   UNL     1      -7.487   8.350  -0.741  1.00  0.00    +0.243 C 
ATOM     27  O   UNL     1      -6.570   7.815  -1.361  1.00  0.00    -0.273 OA
ATOM     28  N   UNL     1      -8.555   8.962  -1.376  1.00  0.00    -0.342 N 
ATOM     29  H   UNL     1      -9.413   9.036  -0.842  1.00  0.00    +0.164 HD
BRANCH  28  30
ATOM     30  C   UNL     1      -8.737   8.799  -2.821  1.00  0.00    +0.176 C 
BRANCH  30  31
ATOM     31  C   UNL     1      -8.864  10.169  -3.504  1.00  0.00    +0.070 C 
BRANCH  31  32
ATOM     32  C   UNL     1      -8.082  10.267  -4.793  1.00  0.00    -0.045 A 
ATOM     33  C   UNL     1      -8.670   9.908  -6.013  1.00  0.00    +0.004 A 
ATOM     34  C   UNL     1      -6.743  10.683  -4.778  1.00  0.00    +0.004 A 
ATOM     35  C   UNL     1      -7.928   9.954  -7.195  1.00  0.00    +0.000 A 
ATOM     36  C   UNL     1      -6.004  10.728  -5.961  1.00  0.00    +0.000 A 
ATOM     37  C   UNL     1      -6.596  10.362  -7.167  1.00  0.00    +0.000 A 
ENDBRANCH  31  32
ENDBRANCH  30  31
BRANCH  30  38
ATOM     38  C   UNL     1     -10.027   7.966  -3.018  1.00  0.00    +0.247 C 
ATOM     39  O   UNL     1     -10.041   7.014  -3.799  1.00  0.00    -0.272 OA
ATOM     40  N   UNL     1     -11.074   8.374  -2.211  1.00  0.00    -0.324 N 
ATOM     41  H   UNL     1     -10.883   9.145  -1.578  1.00  0.00    +0.170 HD
BRANCH  40  42
ATOM     42  C   UNL     1     -12.362   7.813  -2.115  1.00  0.00    +0.041 A 
ATOM     43  C   UNL     1     -12.635   6.450  -2.263  1.00  0.00    +0.033 A 
ATOM     44  C   UNL     1     -13.420   8.696  -1.855  1.00  0.00    +0.033 A 
ATOM     45  C   UNL     1     -13.945   5.968  -2.152  1.00  0.00    +0.088 A 
ATOM     46  C   UNL     1     -14.734   8.227  -1.742  1.00  0.00    +0.088 A 
ATOM     47  C   UNL     1     -14.991   6.860  -1.891  1.00  0.00    +0.269 A 
BRANCH  47  48
ATOM     48  N   UNL     1     -16.366   6.359  -1.772  1.00  0.00    +0.062 N 
ATOM     49  O   UNL     1     -17.058   6.327  -2.800  1.00  0.00    -0.258 OA
ATOM     50  O   UNL     1     -16.755   6.001  -0.651  1.00  0.00    -0.258 OA
ENDBRANCH  47  48
ENDBRANCH  40  42
ENDBRANCH  30  38
ENDBRANCH  28  30
ENDBRANCH  23  26
ENDBRANCH  19  21
ENDBRANCH   1  19
TORSDOF 16
ENDMDL
MODEL 8
REMARK VINA RESULT:    -8.142      2.934      5.169
REMARK INTER + INTRA:         -17.820
REMARK INTER:                 -14.054
REMARK INTRA:                  -3.765
REMARK UNBOUND:                -2.299
REMARK SMILES C[C@H](NC(=O)CCC(=O)O)C(=O)N[C@@H](C)C(=O)N1CCC[C@@H]1C(=O)N[C@H](Cc1ccccc1)C(=O)Nc1ccc([N+](=O)[O-])cc1
REMARK SMILES IDX 14 1 15 2 13 3 11 4 12 5 2 7 1 8 3 9 4 10 5 11 6 13 7 14
REMARK SMILES IDX 8 15 9 16 10 17 16 19 17 20 18 21 19 22 22 23 20 24 21 25
REMARK SMILES IDX 23 26 24 27 25 28 26 30 27 31 28 32 29 33 33 34 30 35 32 36
REMARK SMILES IDX 31 37 34 38 35 39 36 40 37 42 38 43 45 44 39 45 44 46 40 47
REMARK SMILES IDX 41 48 42 49 43 50
REMARK H PARENT 13 6 3 12 10 18 25 29 36 41
ROOT
ATOM      1  C   UNL     1     -10.109   6.126   3.434  1.00  0.00    +0.168 C 
ATOM      2  C   UNL     1     -10.378   4.636   3.245  1.00  0.00    +0.041 C 
ENDROOT
BRANCH   1   3
ATOM      3  N   UNL     1     -10.400   6.529   4.806  1.00  0.00    -0.343 N 
ATOM      4  C   UNL     1      -9.465   6.497   5.817  1.00  0.00    +0.242 C 
ATOM      5  O   UNL     1      -8.315   6.107   5.637  1.00  0.00    -0.273 OA
ATOM      6  H   UNL     1     -11.280   7.013   4.971  1.00  0.00    +0.164 HD
BRANCH   4   7
ATOM      7  C   UNL     1      -9.963   7.118   7.138  1.00  0.00    +0.168 C 
ATOM      8  C   UNL     1     -10.053   6.073   8.242  1.00  0.00    +0.041 C 
BRANCH   7   9
ATOM      9  N   UNL     1     -11.255   7.777   6.928  1.00  0.00    -0.345 N 
ATOM     10  C   UNL     1     -11.644   8.856   7.688  1.00  0.00    +0.221 C 
ATOM     11  O   UNL     1     -10.912   9.408   8.500  1.00  0.00    -0.275 OA
ATOM     12  H   UNL     1     -11.961   7.259   6.418  1.00  0.00    +0.164 HD
BRANCH  10  13
ATOM     13  C   UNL     1     -13.051   9.326   7.378  1.00  0.00    +0.111 C 
BRANCH  13  14
ATOM     14  C   UNL     1     -13.696   8.488   6.281  1.00  0.00    +0.132 C 
BRANCH  14  15
ATOM     15  C   UNL     1     -14.093   9.349   5.114  1.00  0.00    +0.303 C 
ATOM     16  O   UNL     1     -15.213   9.491   4.654  1.00  0.00    -0.252 OA
BRANCH  15  17
ATOM     17  O   UNL     1     -13.033   9.953   4.544  1.00  0.00    -0.481 OA
ATOM     18  H   UNL     1     -12.441   9.212   4.296  1.00  0.00    +0.296 HD
ENDBRANCH  15  17
ENDBRANCH  14  15
ENDBRANCH  13  14
ENDBRANCH  10  13
ENDBRANCH   7   9
ENDBRANCH   4   7
ENDBRANCH   1   3
BRANCH   1  19
ATOM     19  C   UNL     1     -11.023   6.956   2.512  1.00  0.00    +0.245 C 
ATOM     20  O   UNL     1     -11.920   7.662   2.989  1.00  0.00    -0.272 OA
BRANCH  19  21
ATOM     21  N   UNL     1     -10.838   6.858   1.152  1.00  0.00    -0.329 N 
ATOM     22  C   UNL     1      -9.654   6.401   0.441  1.00  0.00    +0.120 C 
ATOM     23  C   UNL     1     -11.866   7.330   0.230  1.00  0.00    +0.174 C 
ATOM     24  C   UNL     1      -9.932   6.710  -1.025  1.00  0.00    +0.024 C 
ATOM     25  C   UNL     1     -11.456   6.716  -1.108  1.00  0.00    +0.037 C 
BRANCH  23  26
ATOM     26  C   UNL     1     -11.878   8.872   0.134  1.00  0.00    +0.243 C 
ATOM     27  O   UNL     1     -12.900   9.551   0.212  1.00  0.00    -0.273 OA
ATOM     28  N   UNL     1     -10.620   9.436   0.006  1.00  0.00    -0.342 N 
ATOM     29  H   UNL     1      -9.839   8.869   0.319  1.00  0.00    +0.164 HD
BRANCH  28  30
ATOM     30  C   UNL     1     -10.445  10.880   0.182  1.00  0.00    +0.176 C 
BRANCH  30  31
ATOM     31  C   UNL     1      -9.864  11.511  -1.091  1.00  0.00    +0.070 C 
BRANCH  31  32
ATOM     32  C   UNL     1      -9.253  10.498  -2.032  1.00  0.00    -0.045 A 
ATOM     33  C   UNL     1      -9.982  10.009  -3.124  1.00  0.00    +0.004 A 
ATOM     34  C   UNL     1      -7.961  10.006  -1.801  1.00  0.00    +0.004 A 
ATOM     35  C   UNL     1      -9.433   9.039  -3.964  1.00  0.00    +0.000 A 
ATOM     36  C   UNL     1      -7.414   9.036  -2.642  1.00  0.00    +0.000 A 
ATOM     37  C   UNL     1      -8.151   8.551  -3.720  1.00  0.00    +0.000 A 
ENDBRANCH  31  32
ENDBRANCH  30  31
BRANCH  30  38
ATOM     38  C   UNL     1      -9.481  11.072   1.379  1.00  0.00    +0.247 C 
ATOM     39  O   UNL     1      -8.751  12.062   1.439  1.00  0.00    -0.272 OA
ATOM     40  N   UNL     1      -9.585  10.076   2.334  1.00  0.00    -0.324 N 
ATOM     41  H   UNL     1     -10.278   9.355   2.161  1.00  0.00    +0.170 HD
BRANCH  40  42
ATOM     42  C   UNL     1      -8.886   9.970   3.552  1.00  0.00    +0.041 A 
ATOM     43  C   UNL     1      -7.651   9.332   3.693  1.00  0.00    +0.033 A 
ATOM     44  C   UNL     1      -9.486  10.549   4.680  1.00  0.00    +0.033 A 
ATOM     45  C   UNL     1      -7.017   9.270   4.940  1.00  0.00    +0.088 A 
ATOM     46  C   UNL     1      -8.863  10.495   5.932  1.00  0.00    +0.088 A 
ATOM     47  C   UNL     1      -7.626   9.853   6.056  1.00  0.00    +0.269 A 
BRANCH  47  48
ATOM     48  N   UNL     1      -6.964   9.792   7.365  1.00  0.00    +0.062 N 
ATOM     49  O   UNL     1      -5.970   9.060   7.473  1.00  0.00    -0.258 OA
ATOM     50  O   UNL     1      -7.440  10.472   8.285  1.00  0.00    -0.258 OA
ENDBRANCH  47  48
ENDBRANCH  40  42
ENDBRANCH  30  38
ENDBRANCH  28  30
ENDBRANCH  23  26
ENDBRANCH  19  21
ENDBRANCH   1  19
TORSDOF 16
ENDMDL
MODEL 9
REMARK VINA RESULT:    -8.082      2.416      3.677
REMARK INTER + INTRA:         -17.705
REMARK INTER:                 -15.570
REMARK INTRA:                  -2.134
REMARK UNBOUND:                -2.299
REMARK SMILES C[C@H](NC(=O)CCC(=O)O)C(=O)N[C@@H](C)C(=O)N1CCC[C@@H]1C(=O)N[C@H](Cc1ccccc1)C(=O)Nc1ccc([N+](=O)[O-])cc1
REMARK SMILES IDX 14 1 15 2 13 3 11 4 12 5 2 7 1 8 3 9 4 10 5 11 6 13 7 14
REMARK SMILES IDX 8 15 9 16 10 17 16 19 17 20 18 21 19 22 22 23 20 24 21 25
REMARK SMILES IDX 23 26 24 27 25 28 26 30 27 31 28 32 29 33 33 34 30 35 32 36
REMARK SMILES IDX 31 37 34 38 35 39 36 40 37 42 38 43 45 44 39 45 44 46 40 47
REMARK SMILES IDX 41 48 42 49 43 50
REMARK H PARENT 13 6 3 12 10 18 25 29 36 41
ROOT
ATOM      1  C   UNL     1     -13.399   9.043   3.488  1.00  0.00    +0.168 C 
ATOM      2  C   UNL     1     -14.566   9.689   2.750  1.00  0.00    +0.041 C 
ENDROOT
BRANCH   1   3
ATOM      3  N   UNL     1     -13.222   9.654   4.801  1.00  0.00    -0.343 N 
ATOM      4  C   UNL     1     -13.792   9.154   5.950  1.00  0.00    +0.242 C 
ATOM      5  O   UNL     1     -14.510   8.158   5.948  1.00  0.00    -0.273 OA
ATOM      6  H   UNL     1     -12.508  10.375   4.886  1.00  0.00    +0.164 HD
BRANCH   4   7
ATOM      7  C   UNL     1     -13.333   9.876   7.233  1.00  0.00    +0.168 C 
ATOM      8  C   UNL     1     -12.832  11.281   6.928  1.00  0.00    +0.041 C 
BRANCH   7   9
ATOM      9  N   UNL     1     -12.304   9.086   7.914  1.00  0.00    -0.345 N 
ATOM     10  C   UNL     1     -12.618   8.230   8.945  1.00  0.00    +0.221 C 
ATOM     11  O   UNL     1     -13.768   7.981   9.288  1.00  0.00    -0.275 OA
ATOM     12  H   UNL     1     -11.342   9.387   7.806  1.00  0.00    +0.164 HD
BRANCH  10  13
ATOM     13  C   UNL     1     -11.401   7.584   9.574  1.00  0.00    +0.111 C 
BRANCH  13  14
ATOM     14  C   UNL     1     -11.012   6.296   8.859  1.00  0.00    +0.132 C 
BRANCH  14  15
ATOM     15  C   UNL     1      -9.812   6.513   7.980  1.00  0.00    +0.303 C 
ATOM     16  O   UNL     1      -9.553   5.938   6.937  1.00  0.00    -0.252 OA
BRANCH  15  17
ATOM     17  O   UNL     1      -8.960   7.418   8.498  1.00  0.00    -0.481 OA
ATOM     18  H   UNL     1      -9.427   8.273   8.392  1.00  0.00    +0.296 HD
ENDBRANCH  15  17
ENDBRANCH  14  15
ENDBRANCH  13  14
ENDBRANCH  10  13
ENDBRANCH   7   9
ENDBRANCH   4   7
ENDBRANCH   1   3
BRANCH   1  19
ATOM     19  C   UNL     1     -12.087   9.255   2.707  1.00  0.00    +0.245 C 
ATOM     20  O   UNL     1     -11.904  10.293   2.059  1.00  0.00    -0.272 OA
BRANCH  19  21
ATOM     21  N   UNL     1     -11.151   8.247   2.720  1.00  0.00    -0.329 N 
ATOM     22  C   UNL     1      -9.870   8.225   3.410  1.00  0.00    +0.120 C 
ATOM     23  C   UNL     1     -11.337   7.054   1.902  1.00  0.00    +0.174 C 
ATOM     24  C   UNL     1      -9.169   6.973   2.899  1.00  0.00    +0.024 C 
ATOM     25  C   UNL     1     -10.320   6.066   2.472  1.00  0.00    +0.037 C 
BRANCH  23  26
ATOM     26  C   UNL     1     -11.037   7.335   0.412  1.00  0.00    +0.243 C 
ATOM     27  O   UNL     1     -11.648   6.809  -0.517  1.00  0.00    -0.273 OA
ATOM     28  N   UNL     1     -10.047   8.282   0.207  1.00  0.00    -0.342 N 
ATOM     29  H   UNL     1      -9.868   8.917   0.977  1.00  0.00    +0.164 HD
BRANCH  28  30
ATOM     30  C   UNL     1      -9.847   8.853  -1.127  1.00  0.00    +0.176 C 
BRANCH  30  31
ATOM     31  C   UNL     1      -8.704   8.132  -1.855  1.00  0.00    +0.070 C 
BRANCH  31  32
ATOM     32  C   UNL     1      -8.263   8.836  -3.117  1.00  0.00    -0.045 A 
ATOM     33  C   UNL     1      -9.056   8.792  -4.272  1.00  0.00    +0.004 A 
ATOM     34  C   UNL     1      -7.034   9.510  -3.159  1.00  0.00    +0.004 A 
ATOM     35  C   UNL     1      -8.623   9.403  -5.450  1.00  0.00    +0.000 A 
ATOM     36  C   UNL     1      -6.604  10.120  -4.338  1.00  0.00    +0.000 A 
ATOM     37  C   UNL     1      -7.397  10.064  -5.483  1.00  0.00    +0.000 A 
ENDBRANCH  31  32
ENDBRANCH  30  31
BRANCH  30  38
ATOM     38  C   UNL     1      -9.510  10.351  -0.927  1.00  0.00    +0.247 C 
ATOM     39  O   UNL     1     -10.144  11.220  -1.528  1.00  0.00    -0.272 OA
ATOM     40  N   UNL     1      -8.506  10.569   0.000  1.00  0.00    -0.324 N 
ATOM     41  H   UNL     1      -8.120   9.745   0.451  1.00  0.00    +0.170 HD
BRANCH  40  42
ATOM     42  C   UNL     1      -7.989  11.803   0.440  1.00  0.00    +0.041 A 
ATOM     43  C   UNL     1      -6.980  12.510  -0.220  1.00  0.00    +0.033 A 
ATOM     44  C   UNL     1      -8.535  12.335   1.618  1.00  0.00    +0.033 A 
ATOM     45  C   UNL     1      -6.521  13.734   0.282  1.00  0.00    +0.088 A 
ATOM     46  C   UNL     1      -8.085  13.558   2.129  1.00  0.00    +0.088 A 
ATOM     47  C   UNL     1      -7.076  14.254   1.456  1.00  0.00    +0.269 A 
BRANCH  47  48
ATOM     48  N   UNL     1      -6.598  15.538   1.984  1.00  0.00    +0.062 N 
ATOM     49  O   UNL     1      -5.580  16.027   1.474  1.00  0.00    -0.258 OA
ATOM     50  O   UNL     1      -7.239  16.055   2.910  1.00  0.00    -0.258 OA
ENDBRANCH  47  48
ENDBRANCH  40  42
ENDBRANCH  30  38
ENDBRANCH  28  30
ENDBRANCH  23  26
ENDBRANCH  19  21
ENDBRANCH   1  19
TORSDOF 16
ENDMDL
