MODEL 1
REMARK VINA RESULT:    -6.378      0.000      0.000
REMARK INTER + INTRA:         -10.592
REMARK INTER:                  -9.361
REMARK INTRA:                  -1.231
REMARK UNBOUND:                -1.231
REMARK SMILES O=S(=O)(O)OC[C@@H]1O[C@H](O[C@H]2[C@@H]3OC[C@H]2O[C@@H](O)[C@H]3O)[C@@H](O)[C@H](O)[C@@H]1O
REMARK SMILES IDX 9 1 21 2 23 3 25 4 7 5 8 6 10 7 11 8 14 9 15 10 13 11 16 12
REMARK SMILES IDX 12 13 17 14 19 15 18 16 20 18 22 20 24 22 6 24 5 25 2 26
REMARK SMILES IDX 1 27 3 28 4 29 26 31
REMARK H PARENT 18 17 20 19 22 21 24 23 4 30 26 32
ROOT
ATOM      1  C   UNL     1      -8.815   9.388  -0.212  1.00  0.00    +0.282 C 
ATOM      2  C   UNL     1      -7.284   9.419  -0.040  1.00  0.00    +0.202 C 
ATOM      3  C   UNL     1      -6.942  10.500   0.970  1.00  0.00    +0.179 C 
ATOM      4  C   UNL     1      -7.524  10.120   2.335  1.00  0.00    +0.177 C 
ATOM      5  C   UNL     1      -8.899   9.420   2.230  1.00  0.00    +0.180 C 
ATOM      6  O   UNL     1      -9.553   9.681   0.973  1.00  0.00    -0.341 OA
ENDROOT
BRANCH   1   7
ATOM      7  O   UNL     1      -9.165   8.130  -0.796  1.00  0.00    -0.341 OA
BRANCH   7   8
ATOM      8  C   UNL     1      -9.658   8.252  -2.126  1.00  0.00    +0.184 C 
ATOM      9  C   UNL     1     -11.365   8.145  -3.729  1.00  0.00    +0.195 C 
ATOM     10  C   UNL     1     -11.169   8.395  -2.233  1.00  0.00    +0.179 C 
ATOM     11  O   UNL     1     -10.337   7.194  -4.110  1.00  0.00    -0.370 OA
ATOM     12  O   UNL     1     -11.826   7.421  -1.402  1.00  0.00    -0.342 OA
ATOM     13  C   UNL     1      -9.529   6.962  -2.927  1.00  0.00    +0.184 C 
ATOM     14  C   UNL     1     -11.552   6.055  -1.695  1.00  0.00    +0.279 C 
ATOM     15  C   UNL     1     -10.094   5.782  -2.124  1.00  0.00    +0.202 C 
BRANCH  14  16
ATOM     16  O   UNL     1     -12.457   5.614  -2.704  1.00  0.00    -0.366 OA
ATOM     17  H   UNL     1     -12.128   6.023  -3.524  1.00  0.00    +0.213 HD
ENDBRANCH  14  16
BRANCH  15  18
ATOM     18  O   UNL     1     -10.005   4.572  -2.889  1.00  0.00    -0.385 OA
ATOM     19  H   UNL     1     -10.083   3.862  -2.217  1.00  0.00    +0.211 HD
ENDBRANCH  15  18
ENDBRANCH   7   8
ENDBRANCH   1   7
BRANCH   2  20
ATOM     20  O   UNL     1      -6.621   9.707  -1.283  1.00  0.00    -0.385 OA
ATOM     21  H   UNL     1      -7.036  10.522  -1.628  1.00  0.00    +0.211 HD
ENDBRANCH   2  20
BRANCH   3  22
ATOM     22  O   UNL     1      -5.517  10.645   1.087  1.00  0.00    -0.387 OA
ATOM     23  H   UNL     1      -5.178   9.728   1.166  1.00  0.00    +0.211 HD
ENDBRANCH   3  22
BRANCH   5  24
ATOM     24  C   UNL     1      -8.895   7.919   2.573  1.00  0.00    +0.220 C 
BRANCH  24  25
ATOM     25  O   UNL     1      -9.153   7.773   3.967  1.00  0.00    -0.245 OA
BRANCH  25  26
ATOM     26  S   UNL     1      -8.440   6.538   4.744  1.00  0.00    +0.397 S 
ATOM     27  O   UNL     1      -8.901   5.281   4.199  1.00  0.00    -0.169 OA
ATOM     28  O   UNL     1      -8.465   6.818   6.161  1.00  0.00    -0.169 OA
BRANCH  26  29
ATOM     29  O   UNL     1      -6.899   6.720   4.317  1.00  0.00    -0.264 OA
ATOM     30  H   UNL     1      -6.642   7.633   4.558  1.00  0.00    +0.236 HD
ENDBRANCH  26  29
ENDBRANCH  25  26
ENDBRANCH  24  25
ENDBRANCH   5  24
BRANCH   4  31
ATOM     31  O   UNL     1      -6.576   9.310   3.039  1.00  0.00    -0.387 OA
ATOM     32  H   UNL     1      -7.017   8.437   3.139  1.00  0.00    +0.211 HD
ENDBRANCH   4  31
TORSDOF 11
ENDMDL
MODEL 2
REMARK VINA RESULT:    -6.232      3.253      4.668
REMARK INTER + INTRA:         -10.378
REMARK INTER:                  -8.660
REMARK INTRA:                  -1.718
REMARK UNBOUND:                -1.231
REMARK SMILES O=S(=O)(O)OC[C@@H]1O[C@H](O[C@H]2[C@@H]3OC[C@H]2O[C@@H](O)[C@H]3O)[C@@H](O)[C@H](O)[C@@H]1O
REMARK SMILES IDX 9 1 21 2 23 3 25 4 7 5 8 6 10 7 11 8 14 9 15 10 13 11 16 12
REMARK SMILES IDX 12 13 17 14 19 15 18 16 20 18 22 20 24 22 6 24 5 25 2 26
REMARK SMILES IDX 1 27 3 28 4 29 26 31
REMARK H PARENT 18 17 20 19 22 21 24 23 4 30 26 32
ROOT
ATOM      1  C   UNL     1      -8.711   9.333   4.222  1.00  0.00    +0.282 C 
ATOM      2  C   UNL     1      -7.748   8.256   4.758  1.00  0.00    +0.202 C 
ATOM      3  C   UNL     1      -6.791   8.919   5.735  1.00  0.00    +0.179 C 
ATOM      4  C   UNL     1      -7.578   9.436   6.942  1.00  0.00    +0.177 C 
ATOM      5  C   UNL     1      -8.970   9.994   6.560  1.00  0.00    +0.180 C 
ATOM      6  O   UNL     1      -9.057  10.345   5.166  1.00  0.00    -0.341 OA
ENDROOT
BRANCH   1   7
ATOM      7  O   UNL     1      -9.849   8.666   3.670  1.00  0.00    -0.341 OA
BRANCH   7   8
ATOM      8  C   UNL     1     -10.216   9.162   2.387  1.00  0.00    +0.184 C 
ATOM      9  C   UNL     1     -11.729   9.439   0.618  1.00  0.00    +0.195 C 
ATOM     10  C   UNL     1     -11.714   9.222   2.132  1.00  0.00    +0.179 C 
ATOM     11  O   UNL     1     -10.570   8.731   0.106  1.00  0.00    -0.370 OA
ATOM     12  O   UNL     1     -12.342   7.993   2.538  1.00  0.00    -0.342 OA
ATOM     13  C   UNL     1      -9.867   8.200   1.258  1.00  0.00    +0.184 C 
ATOM     14  C   UNL     1     -11.894   6.810   1.885  1.00  0.00    +0.279 C 
ATOM     15  C   UNL     1     -10.378   6.790   1.587  1.00  0.00    +0.202 C 
BRANCH  14  16
ATOM     16  O   UNL     1     -12.639   6.642   0.681  1.00  0.00    -0.366 OA
ATOM     17  H   UNL     1     -13.390   7.255   0.772  1.00  0.00    +0.213 HD
ENDBRANCH  14  16
BRANCH  15  18
ATOM     18  O   UNL     1     -10.082   5.890   0.511  1.00  0.00    -0.385 OA
ATOM     19  H   UNL     1     -10.805   5.228   0.551  1.00  0.00    +0.211 HD
ENDBRANCH  15  18
ENDBRANCH   7   8
ENDBRANCH   1   7
BRANCH   2  20
ATOM     20  O   UNL     1      -6.992   7.651   3.695  1.00  0.00    -0.385 OA
ATOM     21  H   UNL     1      -7.535   6.906   3.369  1.00  0.00    +0.211 HD
ENDBRANCH   2  20
BRANCH   3  22
ATOM     22  O   UNL     1      -5.800   7.979   6.183  1.00  0.00    -0.387 OA
ATOM     23  H   UNL     1      -6.275   7.124   6.241  1.00  0.00    +0.211 HD
ENDBRANCH   3  22
BRANCH   5  24
ATOM     24  C   UNL     1     -10.164   9.131   7.009  1.00  0.00    +0.220 C 
BRANCH  24  25
ATOM     25  O   UNL     1     -11.369   9.801   6.646  1.00  0.00    -0.245 OA
BRANCH  25  26
ATOM     26  S   UNL     1     -12.625   8.893   6.163  1.00  0.00    +0.397 S 
ATOM     27  O   UNL     1     -13.435   9.631   5.221  1.00  0.00    -0.169 OA
ATOM     28  O   UNL     1     -13.190   8.247   7.326  1.00  0.00    -0.169 OA
BRANCH  26  29
ATOM     29  O   UNL     1     -11.890   7.711   5.355  1.00  0.00    -0.264 OA
ATOM     30  H   UNL     1     -10.935   7.776   5.559  1.00  0.00    +0.236 HD
ENDBRANCH  26  29
ENDBRANCH  25  26
ENDBRANCH  24  25
ENDBRANCH   5  24
BRANCH   4  31
ATOM     31  O   UNL     1      -7.682   8.391   7.916  1.00  0.00    -0.387 OA
ATOM     32  H   UNL     1      -7.030   8.632   8.612  1.00  0.00    +0.211 HD
ENDBRANCH   4  31
TORSDOF 11
ENDMDL
MODEL 3
REMARK VINA RESULT:    -6.185      2.774      5.055
REMARK INTER + INTRA:         -10.308
REMARK INTER:                  -9.045
REMARK INTRA:                  -1.263
REMARK UNBOUND:                -1.231
REMARK SMILES O=S(=O)(O)OC[C@@H]1O[C@H](O[C@H]2[C@@H]3OC[C@H]2O[C@@H](O)[C@H]3O)[C@@H](O)[C@H](O)[C@@H]1O
REMARK SMILES IDX 9 1 21 2 23 3 25 4 7 5 8 6 10 7 11 8 14 9 15 10 13 11 16 12
REMARK SMILES IDX 12 13 17 14 19 15 18 16 20 18 22 20 24 22 6 24 5 25 2 26
REMARK SMILES IDX 1 27 3 28 4 29 26 31
REMARK H PARENT 18 17 20 19 22 21 24 23 4 30 26 32
ROOT
ATOM      1  C   UNL     1     -11.070   9.279   0.943  1.00  0.00    +0.282 C 
ATOM      2  C   UNL     1     -12.058  10.149   1.744  1.00  0.00    +0.202 C 
ATOM      3  C   UNL     1     -13.235   9.279   2.150  1.00  0.00    +0.179 C 
ATOM      4  C   UNL     1     -12.749   8.184   3.105  1.00  0.00    +0.177 C 
ATOM      5  C   UNL     1     -11.344   7.648   2.742  1.00  0.00    +0.180 C 
ATOM      6  O   UNL     1     -10.989   7.921   1.373  1.00  0.00    -0.341 OA
ENDROOT
BRANCH   1   7
ATOM      7  O   UNL     1      -9.803   9.944   0.941  1.00  0.00    -0.341 OA
BRANCH   7   8
ATOM      8  C   UNL     1      -8.980   9.567  -0.157  1.00  0.00    +0.184 C 
ATOM      9  C   UNL     1      -7.190   8.388  -1.107  1.00  0.00    +0.195 C 
ATOM     10  C   UNL     1      -8.179   8.292   0.056  1.00  0.00    +0.179 C 
ATOM     11  O   UNL     1      -6.941   9.804  -1.299  1.00  0.00    -0.370 OA
ATOM     12  O   UNL     1      -7.543   8.308   1.347  1.00  0.00    -0.342 OA
ATOM     13  C   UNL     1      -7.796  10.506  -0.360  1.00  0.00    +0.184 C 
ATOM     14  C   UNL     1      -6.630   9.374   1.586  1.00  0.00    +0.279 C 
ATOM     15  C   UNL     1      -7.059  10.723   0.968  1.00  0.00    +0.202 C 
BRANCH  14  16
ATOM     16  O   UNL     1      -5.345   8.992   1.102  1.00  0.00    -0.366 OA
ATOM     17  H   UNL     1      -4.737   9.194   1.836  1.00  0.00    +0.213 HD
ENDBRANCH  14  16
BRANCH  15  18
ATOM     18  O   UNL     1      -5.925  11.578   0.773  1.00  0.00    -0.385 OA
ATOM     19  H   UNL     1      -6.302  12.483   0.810  1.00  0.00    +0.211 HD
ENDBRANCH  15  18
ENDBRANCH   7   8
ENDBRANCH   1   7
BRANCH   2  20
ATOM     20  O   UNL     1     -12.536  11.256   0.962  1.00  0.00    -0.385 OA
ATOM     21  H   UNL     1     -12.649  12.000   1.586  1.00  0.00    +0.211 HD
ENDBRANCH   2  20
BRANCH   3  22
ATOM     22  O   UNL     1     -14.239  10.069   2.808  1.00  0.00    -0.387 OA
ATOM     23  H   UNL     1     -13.764  10.523   3.535  1.00  0.00    +0.211 HD
ENDBRANCH   3  22
BRANCH   5  24
ATOM     24  C   UNL     1     -10.221   8.048   3.716  1.00  0.00    +0.220 C 
BRANCH  24  25
ATOM     25  O   UNL     1     -10.159   7.078   4.759  1.00  0.00    -0.245 OA
BRANCH  25  26
ATOM     26  S   UNL     1      -8.992   5.953   4.678  1.00  0.00    +0.397 S 
ATOM     27  O   UNL     1      -9.413   4.866   3.823  1.00  0.00    -0.169 OA
ATOM     28  O   UNL     1      -8.483   5.731   6.012  1.00  0.00    -0.169 OA
BRANCH  26  29
ATOM     29  O   UNL     1      -7.816   6.746   3.917  1.00  0.00    -0.264 OA
ATOM     30  H   UNL     1      -7.305   7.224   4.602  1.00  0.00    +0.236 HD
ENDBRANCH  26  29
ENDBRANCH  25  26
ENDBRANCH  24  25
ENDBRANCH   5  24
BRANCH   4  31
ATOM     31  O   UNL     1     -12.789   8.681   4.447  1.00  0.00    -0.387 OA
ATOM     32  H   UNL     1     -12.632   9.648   4.362  1.00  0.00    +0.211 HD
ENDBRANCH   4  31
TORSDOF 11
ENDMDL
MODEL 4
REMARK VINA RESULT:    -6.110      2.104      2.675
REMARK INTER + INTRA:         -10.198
REMARK INTER:                  -8.511
REMARK INTRA:                  -1.687
REMARK UNBOUND:                -1.231
REMARK SMILES O=S(=O)(O)OC[C@@H]1O[C@H](O[C@H]2[C@@H]3OC[C@H]2O[C@@H](O)[C@H]3O)[C@@H](O)[C@H](O)[C@@H]1O
REMARK SMILES IDX 9 1 21 2 23 3 25 4 7 5 8 6 10 7 11 8 14 9 15 10 13 11 16 12
REMARK SMILES IDX 12 13 17 14 19 15 18 16 20 18 22 20 24 22 6 24 5 25 2 26
REMARK SMILES IDX 1 27 3 28 4 29 26 31
REMARK H PARENT 18 17 20 19 22 21 24 23 4 30 26 32
ROOT
ATOM      1  C   UNL     1      -8.780   9.764  -0.469  1.00  0.00    +0.282 C 
ATOM      2  C   UNL     1      -7.406   9.347   0.091  1.00  0.00    +0.202 C 
ATOM      3  C   UNL     1      -6.804  10.542   0.809  1.00  0.00    +0.179 C 
ATOM      4  C   UNL     1      -7.675  10.897   2.018  1.00  0.00    +0.177 C 
ATOM      5  C   UNL     1      -9.186  10.704   1.750  1.00  0.00    +0.180 C 
ATOM      6  O   UNL     1      -9.496  10.692   0.343  1.00  0.00    -0.341 OA
ENDROOT
BRANCH   1   7
ATOM      7  O   UNL     1      -9.520   8.571  -0.746  1.00  0.00    -0.341 OA
BRANCH   7   8
ATOM      8  C   UNL     1      -9.740   8.366  -2.138  1.00  0.00    +0.184 C 
ATOM      9  C   UNL     1     -11.098   7.827  -3.971  1.00  0.00    +0.195 C 
ATOM     10  C   UNL     1     -11.199   8.422  -2.566  1.00  0.00    +0.179 C 
ATOM     11  O   UNL     1     -10.023   6.855  -3.914  1.00  0.00    -0.370 OA
ATOM     12  O   UNL     1     -12.014   7.640  -1.673  1.00  0.00    -0.342 OA
ATOM     13  C   UNL     1      -9.466   6.932  -2.576  1.00  0.00    +0.184 C 
ATOM     14  C   UNL     1     -11.699   6.255  -1.582  1.00  0.00    +0.279 C 
ATOM     15  C   UNL     1     -10.186   5.947  -1.645  1.00  0.00    +0.202 C 
BRANCH  14  16
ATOM     16  O   UNL     1     -12.391   5.559  -2.615  1.00  0.00    -0.366 OA
ATOM     17  H   UNL     1     -13.006   6.218  -2.984  1.00  0.00    +0.213 HD
ENDBRANCH  14  16
BRANCH  15  18
ATOM     18  O   UNL     1      -9.958   4.598  -2.075  1.00  0.00    -0.385 OA
ATOM     19  H   UNL     1     -10.667   4.085  -1.630  1.00  0.00    +0.211 HD
ENDBRANCH  15  18
ENDBRANCH   7   8
ENDBRANCH   1   7
BRANCH   2  20
ATOM     20  O   UNL     1      -6.516   8.929  -0.958  1.00  0.00    -0.385 OA
ATOM     21  H   UNL     1      -6.153   9.748  -1.347  1.00  0.00    +0.211 HD
ENDBRANCH   2  20
BRANCH   3  22
ATOM     22  O   UNL     1      -5.472  10.240   1.258  1.00  0.00    -0.387 OA
ATOM     23  H   UNL     1      -5.479  10.445   2.217  1.00  0.00    +0.211 HD
ENDBRANCH   3  22
BRANCH   5  24
ATOM     24  C   UNL     1      -9.834   9.518   2.489  1.00  0.00    +0.220 C 
BRANCH  24  25
ATOM     25  O   UNL     1     -11.090   9.943   3.012  1.00  0.00    -0.245 OA
BRANCH  25  26
ATOM     26  S   UNL     1     -12.416   9.660   2.120  1.00  0.00    +0.397 S 
ATOM     27  O   UNL     1     -12.839  10.877   1.465  1.00  0.00    -0.169 OA
ATOM     28  O   UNL     1     -13.324   8.850   2.900  1.00  0.00    -0.169 OA
BRANCH  26  29
ATOM     29  O   UNL     1     -11.851   8.667   0.987  1.00  0.00    -0.264 OA
ATOM     30  H   UNL     1     -12.599   8.105   0.701  1.00  0.00    +0.236 HD
ENDBRANCH  26  29
ENDBRANCH  25  26
ENDBRANCH  24  25
ENDBRANCH   5  24
BRANCH   4  31
ATOM     31  O   UNL     1      -7.242  10.133   3.149  1.00  0.00    -0.387 OA
ATOM     32  H   UNL     1      -6.297  10.379   3.271  1.00  0.00    +0.211 HD
ENDBRANCH   4  31
TORSDOF 11
ENDMDL
MODEL 5
REMARK VINA RESULT:    -6.089      3.966      8.088
REMARK INTER + INTRA:         -10.167
REMARK INTER:                  -8.887
REMARK INTRA:                  -1.280
REMARK UNBOUND:                -1.231
REMARK SMILES O=S(=O)(O)OC[C@@H]1O[C@H](O[C@H]2[C@@H]3OC[C@H]2O[C@@H](O)[C@H]3O)[C@@H](O)[C@H](O)[C@@H]1O
REMARK SMILES IDX 9 1 21 2 23 3 25 4 7 5 8 6 10 7 11 8 14 9 15 10 13 11 16 12
REMARK SMILES IDX 12 13 17 14 19 15 18 16 20 18 22 20 24 22 6 24 5 25 2 26
REMARK SMILES IDX 1 27 3 28 4 29 26 31
REMARK H PARENT 18 17 20 19 22 21 24 23 4 30 26 32
ROOT
ATOM      1  C   UNL     1      -8.358   9.843   3.010  1.00  0.00    +0.282 C 
ATOM      2  C   UNL     1      -7.268   9.096   2.216  1.00  0.00    +0.202 C 
ATOM      3  C   UNL     1      -7.749   8.939   0.784  1.00  0.00    +0.179 C 
ATOM      4  C   UNL     1      -7.882  10.322   0.140  1.00  0.00    +0.177 C 
ATOM      5  C   UNL     1      -8.396  11.398   1.126  1.00  0.00    +0.180 C 
ATOM      6  O   UNL     1      -9.072  10.824   2.261  1.00  0.00    -0.341 OA
ENDROOT
BRANCH   1   7
ATOM      7  O   UNL     1      -7.753  10.370   4.194  1.00  0.00    -0.341 OA
BRANCH   7   8
ATOM      8  C   UNL     1      -8.288   9.808   5.388  1.00  0.00    +0.184 C 
ATOM      9  C   UNL     1      -8.558   9.739   7.716  1.00  0.00    +0.195 C 
ATOM     10  C   UNL     1      -8.268  10.736   6.593  1.00  0.00    +0.179 C 
ATOM     11  O   UNL     1      -7.949   8.489   7.302  1.00  0.00    -0.370 OA
ATOM     12  O   UNL     1      -6.984  11.374   6.714  1.00  0.00    -0.342 OA
ATOM     13  C   UNL     1      -7.406   8.712   5.975  1.00  0.00    +0.184 C 
ATOM     14  C   UNL     1      -5.865  10.511   6.883  1.00  0.00    +0.279 C 
ATOM     15  C   UNL     1      -5.953   9.198   6.073  1.00  0.00    +0.202 C 
BRANCH  14  16
ATOM     16  O   UNL     1      -5.711  10.228   8.271  1.00  0.00    -0.366 OA
ATOM     17  H   UNL     1      -5.353  11.050   8.650  1.00  0.00    +0.213 HD
ENDBRANCH  14  16
BRANCH  15  18
ATOM     18  O   UNL     1      -5.127   8.182   6.656  1.00  0.00    -0.385 OA
ATOM     19  H   UNL     1      -4.308   8.660   6.909  1.00  0.00    +0.211 HD
ENDBRANCH  15  18
ENDBRANCH   7   8
ENDBRANCH   1   7
BRANCH   2  20
ATOM     20  O   UNL     1      -7.010   7.796   2.773  1.00  0.00    -0.385 OA
ATOM     21  H   UNL     1      -6.157   7.868   3.244  1.00  0.00    +0.211 HD
ENDBRANCH   2  20
BRANCH   3  22
ATOM     22  O   UNL     1      -6.815   8.152   0.025  1.00  0.00    -0.387 OA
ATOM     23  H   UNL     1      -7.347   7.411  -0.335  1.00  0.00    +0.211 HD
ENDBRANCH   3  22
BRANCH   5  24
ATOM     24  C   UNL     1      -7.351  12.446   1.551  1.00  0.00    +0.220 C 
BRANCH  24  25
ATOM     25  O   UNL     1      -7.146  13.346   0.464  1.00  0.00    -0.245 OA
BRANCH  25  26
ATOM     26  S   UNL     1      -5.616  13.712   0.063  1.00  0.00    +0.397 S 
ATOM     27  O   UNL     1      -5.224  14.953   0.693  1.00  0.00    -0.169 OA
ATOM     28  O   UNL     1      -5.450  13.482  -1.354  1.00  0.00    -0.169 OA
BRANCH  26  29
ATOM     29  O   UNL     1      -4.792  12.524   0.771  1.00  0.00    -0.264 OA
ATOM     30  H   UNL     1      -5.281  12.282   1.583  1.00  0.00    +0.236 HD
ENDBRANCH  26  29
ENDBRANCH  25  26
ENDBRANCH  24  25
ENDBRANCH   5  24
BRANCH   4  31
ATOM     31  O   UNL     1      -6.625  10.696  -0.434  1.00  0.00    -0.387 OA
ATOM     32  H   UNL     1      -6.206  11.280   0.237  1.00  0.00    +0.211 HD
ENDBRANCH   4  31
TORSDOF 11
ENDMDL
MODEL 6
REMARK VINA RESULT:    -6.069      2.338      6.782
REMARK INTER + INTRA:         -10.139
REMARK INTER:                  -8.323
REMARK INTRA:                  -1.816
REMARK UNBOUND:                -1.231
REMARK SMILES O=S(=O)(O)OC[C@@H]1O[C@H](O[C@H]2[C@@H]3OC[C@H]2O[C@@H](O)[C@H]3O)[C@@H](O)[C@H](O)[C@@H]1O
REMARK SMILES IDX 9 1 21 2 23 3 25 4 7 5 8 6 10 7 11 8 14 9 15 10 13 11 16 12
REMARK SMILES IDX 12 13 17 14 19 15 18 16 20 18 22 20 24 22 6 24 5 25 2 26
REMARK SMILES IDX 1 27 3 28 4 29 26 31
REMARK H PARENT 18 17 20 19 22 21 24 23 4 30 26 32
ROOT
ATOM      1  C   UNL     1     -10.975   8.711   1.081  1.00  0.00    +0.282 C 
ATOM      2  C   UNL     1     -11.153   7.288   0.517  1.00  0.00    +0.202 C 
ATOM      3  C   UNL     1     -12.173   7.349  -0.608  1.00  0.00    +0.179 C 
ATOM      4  C   UNL     1     -11.615   8.201  -1.751  1.00  0.00    +0.177 C 
ATOM      5  C   UNL     1     -10.784   9.408  -1.253  1.00  0.00    +0.180 C 
ATOM      6  O   UNL     1     -11.083   9.753   0.113  1.00  0.00    -0.341 OA
ENDROOT
BRANCH   1   7
ATOM      7  O   UNL     1      -9.742   8.742   1.807  1.00  0.00    -0.341 OA
BRANCH   7   8
ATOM      8  C   UNL     1      -9.927   8.904   3.209  1.00  0.00    +0.184 C 
ATOM      9  C   UNL     1      -9.345   9.802   5.294  1.00  0.00    +0.195 C 
ATOM     10  C   UNL     1      -9.252  10.130   3.803  1.00  0.00    +0.179 C 
ATOM     11  O   UNL     1      -9.245   8.358   5.390  1.00  0.00    -0.370 OA
ATOM     12  O   UNL     1      -7.898  10.238   3.327  1.00  0.00    -0.342 OA
ATOM     13  C   UNL     1      -9.182   7.857   4.029  1.00  0.00    +0.184 C 
ATOM     14  C   UNL     1      -7.035   9.147   3.629  1.00  0.00    +0.279 C 
ATOM     15  C   UNL     1      -7.721   7.764   3.567  1.00  0.00    +0.202 C 
BRANCH  14  16
ATOM     16  O   UNL     1      -6.462   9.359   4.916  1.00  0.00    -0.366 OA
ATOM     17  H   UNL     1      -5.767  10.025   4.767  1.00  0.00    +0.213 HD
ENDBRANCH  14  16
BRANCH  15  18
ATOM     18  O   UNL     1      -7.009   6.805   4.359  1.00  0.00    -0.385 OA
ATOM     19  H   UNL     1      -7.464   5.956   4.170  1.00  0.00    +0.211 HD
ENDBRANCH  15  18
ENDBRANCH   7   8
ENDBRANCH   1   7
BRANCH   2  20
ATOM     20  O   UNL     1     -11.618   6.376   1.527  1.00  0.00    -0.385 OA
ATOM     21  H   UNL     1     -10.916   5.704   1.628  1.00  0.00    +0.211 HD
ENDBRANCH   2  20
BRANCH   3  22
ATOM     22  O   UNL     1     -12.457   6.028  -1.098  1.00  0.00    -0.387 OA
ATOM     23  H   UNL     1     -13.152   6.158  -1.778  1.00  0.00    +0.211 HD
ENDBRANCH   3  22
BRANCH   5  24
ATOM     24  C   UNL     1      -9.267   9.302  -1.499  1.00  0.00    +0.220 C 
BRANCH  24  25
ATOM     25  O   UNL     1      -8.729  10.620  -1.581  1.00  0.00    -0.245 OA
BRANCH  25  26
ATOM     26  S   UNL     1      -7.720  11.100  -0.403  1.00  0.00    +0.397 S 
ATOM     27  O   UNL     1      -7.023  12.299  -0.809  1.00  0.00    -0.169 OA
ATOM     28  O   UNL     1      -7.025   9.937   0.101  1.00  0.00    -0.169 OA
BRANCH  26  29
ATOM     29  O   UNL     1      -8.746  11.505   0.770  1.00  0.00    -0.264 OA
ATOM     30  H   UNL     1      -9.289  12.244   0.431  1.00  0.00    +0.236 HD
ENDBRANCH  26  29
ENDBRANCH  25  26
ENDBRANCH  24  25
ENDBRANCH   5  24
BRANCH   4  31
ATOM     31  O   UNL     1     -10.851   7.367  -2.629  1.00  0.00    -0.387 OA
ATOM     32  H   UNL     1     -10.301   6.811  -2.033  1.00  0.00    +0.211 HD
ENDBRANCH   4  31
TORSDOF 11
ENDMDL
MODEL 7
REMARK VINA RESULT:    -5.783      3.154      5.968
REMARK INTER + INTRA:          -9.718
REMARK INTER:                  -8.481
REMARK INTRA:                  -1.237
REMARK UNBOUND:                -1.231
REMARK SMILES O=S(=O)(O)OC[C@@H]1O[C@H](O[C@H]2[C@@H]3OC[C@H]2O[C@@H](O)[C@H]3O)[C@@H](O)[C@H](O)[C@@H]1O
REMARK SMILES IDX 9 1 21 2 23 3 25 4 7 5 8 6 10 7 11 8 14 9 15 10 13 11 16 12
REMARK SMILES IDX 12 13 17 14 19 15 18 16 20 18 22 20 24 22 6 24 5 25 2 26
REMARK SMILES IDX 1 27 3 28 4 29 26 31
REMARK H PARENT 18 17 20 19 22 21 24 23 4 30 26 32
ROOT
ATOM      1  C   UNL     1      -8.552   7.449   3.939  1.00  0.00    +0.282 C 
ATOM      2  C   UNL     1      -9.702   7.414   4.964  1.00  0.00    +0.202 C 
ATOM      3  C   UNL     1      -9.243   6.607   6.166  1.00  0.00    +0.179 C 
ATOM      4  C   UNL     1      -8.078   7.332   6.846  1.00  0.00    +0.177 C 
ATOM      5  C   UNL     1      -7.130   8.027   5.840  1.00  0.00    +0.180 C 
ATOM      6  O   UNL     1      -7.246   7.483   4.512  1.00  0.00    -0.341 OA
ENDROOT
BRANCH   1   7
ATOM      7  O   UNL     1      -8.800   8.533   3.039  1.00  0.00    -0.341 OA
BRANCH   7   8
ATOM      8  C   UNL     1      -8.541   8.197   1.680  1.00  0.00    +0.184 C 
ATOM      9  C   UNL     1      -7.233   8.257  -0.264  1.00  0.00    +0.195 C 
ATOM     10  C   UNL     1      -7.087   8.338   1.256  1.00  0.00    +0.179 C 
ATOM     11  O   UNL     1      -8.515   8.864  -0.572  1.00  0.00    -0.370 OA
ATOM     12  O   UNL     1      -6.550   9.593   1.711  1.00  0.00    -0.342 OA
ATOM     13  C   UNL     1      -9.126   9.206   0.699  1.00  0.00    +0.184 C 
ATOM     14  C   UNL     1      -7.200  10.767   1.233  1.00  0.00    +0.279 C 
ATOM     15  C   UNL     1      -8.734  10.632   1.108  1.00  0.00    +0.202 C 
BRANCH  14  16
ATOM     16  O   UNL     1      -6.629  11.126  -0.023  1.00  0.00    -0.366 OA
ATOM     17  H   UNL     1      -5.742  11.460   0.198  1.00  0.00    +0.213 HD
ENDBRANCH  14  16
BRANCH  15  18
ATOM     18  O   UNL     1      -9.254  11.581   0.168  1.00  0.00    -0.385 OA
ATOM     19  H   UNL     1      -8.757  12.404   0.363  1.00  0.00    +0.211 HD
ENDBRANCH  15  18
ENDBRANCH   7   8
ENDBRANCH   1   7
BRANCH   2  20
ATOM     20  O   UNL     1     -10.882   6.806   4.409  1.00  0.00    -0.385 OA
ATOM     21  H   UNL     1     -10.566   6.115   3.795  1.00  0.00    +0.211 HD
ENDBRANCH   2  20
BRANCH   3  22
ATOM     22  O   UNL     1     -10.318   6.452   7.107  1.00  0.00    -0.387 OA
ATOM     23  H   UNL     1      -9.915   6.640   7.980  1.00  0.00    +0.211 HD
ENDBRANCH   3  22
BRANCH   5  24
ATOM     24  C   UNL     1      -7.196   9.565   5.837  1.00  0.00    +0.220 C 
BRANCH  24  25
ATOM     25  O   UNL     1      -6.527  10.049   6.999  1.00  0.00    -0.245 OA
BRANCH  25  26
ATOM     26  S   UNL     1      -7.038  11.451   7.639  1.00  0.00    +0.397 S 
ATOM     27  O   UNL     1      -8.318  11.262   8.283  1.00  0.00    -0.169 OA
ATOM     28  O   UNL     1      -6.810  12.500   6.672  1.00  0.00    -0.169 OA
BRANCH  26  29
ATOM     29  O   UNL     1      -5.944  11.711   8.791  1.00  0.00    -0.264 OA
ATOM     30  H   UNL     1      -5.432  12.501   8.524  1.00  0.00    +0.236 HD
ENDBRANCH  26  29
ENDBRANCH  25  26
ENDBRANCH  24  25
ENDBRANCH   5  24
BRANCH   4  31
ATOM     31  O   UNL     1      -8.599   8.262   7.803  1.00  0.00    -0.387 OA
ATOM     32  H   UNL     1      -8.751   9.089   7.292  1.00  0.00    +0.211 HD
ENDBRANCH   4  31
TORSDOF 11
ENDMDL
MODEL 8
REMARK VINA RESULT:    -5.763      3.115      7.212
REMARK INTER + INTRA:          -9.689
REMARK INTER:                  -8.535
REMARK INTRA:                  -1.154
REMARK UNBOUND:                -1.231
REMARK SMILES O=S(=O)(O)OC[C@@H]1O[C@H](O[C@H]2[C@@H]3OC[C@H]2O[C@@H](O)[C@H]3O)[C@@H](O)[C@H](O)[C@@H]1O
REMARK SMILES IDX 9 1 21 2 23 3 25 4 7 5 8 6 10 7 11 8 14 9 15 10 13 11 16 12
REMARK SMILES IDX 12 13 17 14 19 15 18 16 20 18 22 20 24 22 6 24 5 25 2 26
REMARK SMILES IDX 1 27 3 28 4 29 26 31
REMARK H PARENT 18 17 20 19 22 21 24 23 4 30 26 32
ROOT
ATOM      1  C   UNL     1      -7.738   8.048   3.163  1.00  0.00    +0.282 C 
ATOM      2  C   UNL     1      -7.191   9.090   2.168  1.00  0.00    +0.202 C 
ATOM      3  C   UNL     1      -7.291   8.507   0.769  1.00  0.00    +0.179 C 
ATOM      4  C   UNL     1      -8.766   8.299   0.412  1.00  0.00    +0.177 C 
ATOM      5  C   UNL     1      -9.619   7.839   1.618  1.00  0.00    +0.180 C 
ATOM      6  O   UNL     1      -8.819   7.261   2.667  1.00  0.00    -0.341 OA
ENDROOT
BRANCH   1   7
ATOM      7  O   UNL     1      -8.051   8.729   4.382  1.00  0.00    -0.341 OA
BRANCH   7   8
ATOM      8  C   UNL     1      -8.636   7.876   5.360  1.00  0.00    +0.184 C 
ATOM      9  C   UNL     1     -10.116   7.445   7.126  1.00  0.00    +0.195 C 
ATOM     10  C   UNL     1      -9.971   8.358   5.908  1.00  0.00    +0.179 C 
ATOM     11  O   UNL     1      -8.767   7.211   7.609  1.00  0.00    -0.370 OA
ATOM     12  O   UNL     1      -9.899   9.754   6.248  1.00  0.00    -0.342 OA
ATOM     13  C   UNL     1      -7.874   7.878   6.680  1.00  0.00    +0.184 C 
ATOM     14  C   UNL     1      -8.934  10.115   7.230  1.00  0.00    +0.279 C 
ATOM     15  C   UNL     1      -7.613   9.319   7.138  1.00  0.00    +0.202 C 
BRANCH  14  16
ATOM     16  O   UNL     1      -9.516   9.964   8.521  1.00  0.00    -0.366 OA
ATOM     17  H   UNL     1      -9.309   9.048   8.777  1.00  0.00    +0.213 HD
ENDBRANCH  14  16
BRANCH  15  18
ATOM     18  O   UNL     1      -6.926   9.324   8.397  1.00  0.00    -0.385 OA
ATOM     19  H   UNL     1      -7.630   9.532   9.049  1.00  0.00    +0.211 HD
ENDBRANCH  15  18
ENDBRANCH   7   8
ENDBRANCH   1   7
BRANCH   2  20
ATOM     20  O   UNL     1      -5.819   9.414   2.448  1.00  0.00    -0.385 OA
ATOM     21  H   UNL     1      -5.685   9.227   3.398  1.00  0.00    +0.211 HD
ENDBRANCH   2  20
BRANCH   3  22
ATOM     22  O   UNL     1      -6.693   9.397  -0.189  1.00  0.00    -0.387 OA
ATOM     23  H   UNL     1      -7.077  10.276   0.012  1.00  0.00    +0.211 HD
ENDBRANCH   3  22
BRANCH   5  24
ATOM     24  C   UNL     1     -10.602   8.893   2.161  1.00  0.00    +0.220 C 
BRANCH  24  25
ATOM     25  O   UNL     1     -11.823   8.791   1.431  1.00  0.00    -0.245 OA
BRANCH  25  26
ATOM     26  S   UNL     1     -13.134   8.249   2.220  1.00  0.00    +0.397 S 
ATOM     27  O   UNL     1     -14.287   9.044   1.865  1.00  0.00    -0.169 OA
ATOM     28  O   UNL     1     -12.765   7.998   3.595  1.00  0.00    -0.169 OA
BRANCH  26  29
ATOM     29  O   UNL     1     -13.330   6.787   1.575  1.00  0.00    -0.264 OA
ATOM     30  H   UNL     1     -12.901   6.804   0.696  1.00  0.00    +0.236 HD
ENDBRANCH  26  29
ENDBRANCH  25  26
ENDBRANCH  24  25
ENDBRANCH   5  24
BRANCH   4  31
ATOM     31  O   UNL     1      -9.283   9.503  -0.166  1.00  0.00    -0.387 OA
ATOM     32  H   UNL     1      -8.621  10.194   0.059  1.00  0.00    +0.211 HD
ENDBRANCH   4  31
TORSDOF 11
ENDMDL
MODEL 9
REMARK VINA RESULT:    -5.721      4.070      6.293
REMARK INTER + INTRA:          -9.628
REMARK INTER:                  -8.304
REMARK INTRA:                  -1.324
REMARK UNBOUND:                -1.231
REMARK SMILES O=S(=O)(O)OC[C@@H]1O[C@H](O[C@H]2[C@@H]3OC[C@H]2O[C@@H](O)[C@H]3O)[C@@H](O)[C@H](O)[C@@H]1O
REMARK SMILES IDX 9 1 21 2 23 3 25 4 7 5 8 6 10 7 11 8 14 9 15 10 13 11 16 12
REMARK SMILES IDX 12 13 17 14 19 15 18 16 20 18 22 20 24 22 6 24 5 25 2 26
REMARK SMILES IDX 1 27 3 28 4 29 26 31
REMARK H PARENT 18 17 20 19 22 21 24 23 4 30 26 32
ROOT
ATOM      1  C   UNL     1      -7.324   9.793   5.488  1.00  0.00    +0.282 C 
ATOM      2  C   UNL     1      -6.627   9.057   6.649  1.00  0.00    +0.202 C 
ATOM      3  C   UNL     1      -5.652  10.020   7.304  1.00  0.00    +0.179 C 
ATOM      4  C   UNL     1      -6.430  11.180   7.932  1.00  0.00    +0.177 C 
ATOM      5  C   UNL     1      -7.656  11.608   7.090  1.00  0.00    +0.180 C 
ATOM      6  O   UNL     1      -7.555  11.181   5.718  1.00  0.00    -0.341 OA
ENDROOT
BRANCH   1   7
ATOM      7  O   UNL     1      -8.514   9.070   5.164  1.00  0.00    -0.341 OA
BRANCH   7   8
ATOM      8  C   UNL     1      -8.604   8.739   3.782  1.00  0.00    +0.184 C 
ATOM      9  C   UNL     1      -9.783   8.514   1.769  1.00  0.00    +0.195 C 
ATOM     10  C   UNL     1      -9.806   9.330   3.062  1.00  0.00    +0.179 C 
ATOM     11  O   UNL     1      -9.277   7.205   2.135  1.00  0.00    -0.370 OA
ATOM     12  O   UNL     1     -11.002   9.136   3.838  1.00  0.00    -0.342 OA
ATOM     13  C   UNL     1      -8.941   7.271   3.545  1.00  0.00    +0.184 C 
ATOM     14  C   UNL     1     -11.357   7.786   4.121  1.00  0.00    +0.279 C 
ATOM     15  C   UNL     1     -10.150   6.862   4.397  1.00  0.00    +0.202 C 
BRANCH  14  16
ATOM     16  O   UNL     1     -12.132   7.280   3.038  1.00  0.00    -0.366 OA
ATOM     17  H   UNL     1     -11.482   7.095   2.338  1.00  0.00    +0.213 HD
ENDBRANCH  14  16
BRANCH  15  18
ATOM     18  O   UNL     1     -10.491   5.491   4.151  1.00  0.00    -0.385 OA
ATOM     19  H   UNL     1     -10.115   5.310   3.263  1.00  0.00    +0.211 HD
ENDBRANCH  15  18
ENDBRANCH   7   8
ENDBRANCH   1   7
BRANCH   2  20
ATOM     20  O   UNL     1      -5.909   7.902   6.183  1.00  0.00    -0.385 OA
ATOM     21  H   UNL     1      -4.967   8.069   6.385  1.00  0.00    +0.211 HD
ENDBRANCH   2  20
BRANCH   3  22
ATOM     22  O   UNL     1      -4.895   9.350   8.326  1.00  0.00    -0.387 OA
ATOM     23  H   UNL     1      -4.674   8.476   7.941  1.00  0.00    +0.211 HD
ENDBRANCH   3  22
BRANCH   5  24
ATOM     24  C   UNL     1      -9.024  11.252   7.702  1.00  0.00    +0.220 C 
BRANCH  24  25
ATOM     25  O   UNL     1     -10.007  12.125   7.151  1.00  0.00    -0.245 OA
BRANCH  25  26
ATOM     26  S   UNL     1     -11.448  11.490   6.757  1.00  0.00    +0.397 S 
ATOM     27  O   UNL     1     -12.511  12.303   7.303  1.00  0.00    -0.169 OA
ATOM     28  O   UNL     1     -11.386  10.061   6.964  1.00  0.00    -0.169 OA
BRANCH  26  29
ATOM     29  O   UNL     1     -11.467  11.672   5.157  1.00  0.00    -0.264 OA
ATOM     30  H   UNL     1     -10.646  12.146   4.915  1.00  0.00    +0.236 HD
ENDBRANCH  26  29
ENDBRANCH  25  26
ENDBRANCH  24  25
ENDBRANCH   5  24
BRANCH   4  31
ATOM     31  O   UNL     1      -6.809  10.822   9.265  1.00  0.00    -0.387 OA
ATOM     32  H   UNL     1      -7.608  11.364   9.453  1.00  0.00    +0.211 HD
ENDBRANCH   4  31
TORSDOF 11
ENDMDL
