MODEL 1
REMARK VINA RESULT:    -5.994      0.000      0.000
REMARK INTER + INTRA:          -9.965
REMARK INTER:                  -8.797
REMARK INTRA:                  -1.168
REMARK UNBOUND:                -1.168
REMARK SMILES O=S(=O)(O)OC[C@@H]1O[C@H](O[C@H]2[C@@H]3OC[C@H]2O[C@@H](O)[C@H]3O)[C@@H](O)[C@H](O)[C@@H]1O
REMARK SMILES IDX 9 1 21 2 23 3 25 4 7 5 8 6 10 7 11 8 14 9 15 10 13 11 16 12
REMARK SMILES IDX 12 13 17 14 19 15 18 16 20 18 22 20 24 22 6 24 5 25 2 26
REMARK SMILES IDX 1 27 3 28 4 29 26 31
REMARK H PARENT 18 17 20 19 22 21 24 23 4 30 26 32
ROOT
ATOM      1  C   UNL     1      -2.187 -10.451 -10.009  1.00  0.00    +0.282 C 
ATOM      2  C   UNL     1      -0.980  -9.570  -9.632  1.00  0.00    +0.202 C 
ATOM      3  C   UNL     1      -1.329  -8.801  -8.370  1.00  0.00    +0.179 C 
ATOM      4  C   UNL     1      -1.523  -9.787  -7.214  1.00  0.00    +0.177 C 
ATOM      5  C   UNL     1      -2.200 -11.107  -7.655  1.00  0.00    +0.180 C 
ATOM      6  O   UNL     1      -2.916 -10.967  -8.897  1.00  0.00    -0.341 OA
ENDROOT
BRANCH   1   7
ATOM      7  O   UNL     1      -1.724 -11.470 -10.900  1.00  0.00    -0.341 OA
BRANCH   7   8
ATOM      8  C   UNL     1      -2.594 -11.675 -12.008  1.00  0.00    +0.184 C 
ATOM      9  C   UNL     1      -3.085 -12.522 -14.138  1.00  0.00    +0.195 C 
ATOM     10  C   UNL     1      -2.188 -12.812 -12.933  1.00  0.00    +0.179 C 
ATOM     11  O   UNL     1      -3.222 -11.078 -14.191  1.00  0.00    -0.370 OA
ATOM     12  O   UNL     1      -0.784 -12.735 -13.237  1.00  0.00    -0.342 OA
ATOM     13  C   UNL     1      -2.518 -10.552 -13.037  1.00  0.00    +0.184 C 
ATOM     14  C   UNL     1      -0.342 -11.546 -13.882  1.00  0.00    +0.279 C 
ATOM     15  C   UNL     1      -1.054 -10.263 -13.397  1.00  0.00    +0.202 C 
BRANCH  14  16
ATOM     16  O   UNL     1      -0.506 -11.701 -15.290  1.00  0.00    -0.366 OA
ATOM     17  H   UNL     1       0.356 -11.446 -15.665  1.00  0.00    +0.213 HD
ENDBRANCH  14  16
BRANCH  15  18
ATOM     18  O   UNL     1      -0.980  -9.232 -14.390  1.00  0.00    -0.385 OA
ATOM     19  H   UNL     1      -0.022  -9.027 -14.447  1.00  0.00    +0.211 HD
ENDBRANCH  15  18
ENDBRANCH   7   8
ENDBRANCH   1   7
BRANCH   2  20
ATOM     20  O   UNL     1      -0.662  -8.638 -10.680  1.00  0.00    -0.385 OA
ATOM     21  H   UNL     1      -1.435  -8.044 -10.757  1.00  0.00    +0.211 HD
ENDBRANCH   2  20
BRANCH   3  22
ATOM     22  O   UNL     1      -0.276  -7.881  -8.035  1.00  0.00    -0.387 OA
ATOM     23  H   UNL     1       0.505  -8.447  -7.860  1.00  0.00    +0.211 HD
ENDBRANCH   3  22
BRANCH   5  24
ATOM     24  C   UNL     1      -1.282 -12.342  -7.658  1.00  0.00    +0.220 C 
BRANCH  24  25
ATOM     25  O   UNL     1      -1.491 -13.065  -6.447  1.00  0.00    -0.245 OA
BRANCH  25  26
ATOM     26  S   UNL     1      -0.306 -13.041  -5.337  1.00  0.00    +0.397 S 
ATOM     27  O   UNL     1       0.930 -12.603  -5.944  1.00  0.00    -0.169 OA
ATOM     28  O   UNL     1      -0.393 -14.253  -4.555  1.00  0.00    -0.169 OA
BRANCH  26  29
ATOM     29  O   UNL     1      -0.803 -11.876  -4.344  1.00  0.00    -0.264 OA
ATOM     30  H   UNL     1      -1.750 -12.041  -4.162  1.00  0.00    +0.236 HD
ENDBRANCH  26  29
ENDBRANCH  25  26
ENDBRANCH  24  25
ENDBRANCH   5  24
BRANCH   4  31
ATOM     31  O   UNL     1      -0.258 -10.031  -6.589  1.00  0.00    -0.387 OA
ATOM     32  H   UNL     1      -0.481 -10.389  -5.701  1.00  0.00    +0.211 HD
ENDBRANCH   4  31
TORSDOF 11
ENDMDL
MODEL 2
REMARK VINA RESULT:    -5.858      5.636      9.603
REMARK INTER + INTRA:          -9.766
REMARK INTER:                  -8.615
REMARK INTRA:                  -1.151
REMARK UNBOUND:                -1.168
REMARK SMILES O=S(=O)(O)OC[C@@H]1O[C@H](O[C@H]2[C@@H]3OC[C@H]2O[C@@H](O)[C@H]3O)[C@@H](O)[C@H](O)[C@@H]1O
REMARK SMILES IDX 9 1 21 2 23 3 25 4 7 5 8 6 10 7 11 8 14 9 15 10 13 11 16 12
REMARK SMILES IDX 12 13 17 14 19 15 18 16 20 18 22 20 24 22 6 24 5 25 2 26
REMARK SMILES IDX 1 27 3 28 4 29 26 31
REMARK H PARENT 18 17 20 19 22 21 24 23 4 30 26 32
ROOT
ATOM      1  C   UNL     1       4.179 -13.520  -5.885  1.00  0.00    +0.282 C 
ATOM      2  C   UNL     1       4.241 -11.984  -5.793  1.00  0.00    +0.202 C 
ATOM      3  C   UNL     1       3.840 -11.411  -7.141  1.00  0.00    +0.179 C 
ATOM      4  C   UNL     1       2.379 -11.768  -7.428  1.00  0.00    +0.177 C 
ATOM      5  C   UNL     1       1.993 -13.179  -6.923  1.00  0.00    +0.180 C 
ATOM      6  O   UNL     1       3.143 -14.024  -6.726  1.00  0.00    -0.341 OA
ENDROOT
BRANCH   1   7
ATOM      7  O   UNL     1       4.122 -14.037  -4.553  1.00  0.00    -0.341 OA
BRANCH   7   8
ATOM      8  C   UNL     1       5.363 -14.578  -4.113  1.00  0.00    +0.184 C 
ATOM      9  C   UNL     1       6.744 -16.359  -3.467  1.00  0.00    +0.195 C 
ATOM     10  C   UNL     1       5.522 -16.074  -4.341  1.00  0.00    +0.179 C 
ATOM     11  O   UNL     1       6.655 -15.437  -2.350  1.00  0.00    -0.370 OA
ATOM     12  O   UNL     1       4.340 -16.775  -3.915  1.00  0.00    -0.342 OA
ATOM     13  C   UNL     1       5.496 -14.600  -2.595  1.00  0.00    +0.184 C 
ATOM     14  C   UNL     1       3.985 -16.636  -2.543  1.00  0.00    +0.279 C 
ATOM     15  C   UNL     1       4.246 -15.228  -1.963  1.00  0.00    +0.202 C 
BRANCH  14  16
ATOM     16  O   UNL     1       4.685 -17.622  -1.788  1.00  0.00    -0.366 OA
ATOM     17  H   UNL     1       4.108 -18.406  -1.816  1.00  0.00    +0.213 HD
ENDBRANCH  14  16
BRANCH  15  18
ATOM     18  O   UNL     1       4.383 -15.282  -0.537  1.00  0.00    -0.385 OA
ATOM     19  H   UNL     1       3.464 -15.405  -0.216  1.00  0.00    +0.211 HD
ENDBRANCH  15  18
ENDBRANCH   7   8
ENDBRANCH   1   7
BRANCH   2  20
ATOM     20  O   UNL     1       5.566 -11.531  -5.462  1.00  0.00    -0.385 OA
ATOM     21  H   UNL     1       5.696 -10.696  -5.953  1.00  0.00    +0.211 HD
ENDBRANCH   2  20
BRANCH   3  22
ATOM     22  O   UNL     1       3.987  -9.981  -7.142  1.00  0.00    -0.387 OA
ATOM     23  H   UNL     1       3.857  -9.716  -8.077  1.00  0.00    +0.211 HD
ENDBRANCH   3  22
BRANCH   5  24
ATOM     24  C   UNL     1       1.050 -13.201  -5.706  1.00  0.00    +0.220 C 
BRANCH  24  25
ATOM     25  O   UNL     1      -0.281 -12.971  -6.161  1.00  0.00    -0.245 OA
BRANCH  25  26
ATOM     26  S   UNL     1      -1.280 -12.138  -5.189  1.00  0.00    +0.397 S 
ATOM     27  O   UNL     1      -1.127 -12.586  -3.824  1.00  0.00    -0.169 OA
ATOM     28  O   UNL     1      -2.572 -12.052  -5.832  1.00  0.00    -0.169 OA
BRANCH  26  29
ATOM     29  O   UNL     1      -0.675 -10.649  -5.286  1.00  0.00    -0.264 OA
ATOM     30  H   UNL     1       0.114 -10.699  -5.864  1.00  0.00    +0.236 HD
ENDBRANCH  26  29
ENDBRANCH  25  26
ENDBRANCH  24  25
ENDBRANCH   5  24
BRANCH   4  31
ATOM     31  O   UNL     1       1.531 -10.760  -6.866  1.00  0.00    -0.387 OA
ATOM     32  H   UNL     1       2.074 -10.338  -6.163  1.00  0.00    +0.211 HD
ENDBRANCH   4  31
TORSDOF 11
ENDMDL
MODEL 3
REMARK VINA RESULT:    -5.857      2.143      3.331
REMARK INTER + INTRA:          -9.764
REMARK INTER:                  -8.803
REMARK INTRA:                  -0.962
REMARK UNBOUND:                -1.168
REMARK SMILES O=S(=O)(O)OC[C@@H]1O[C@H](O[C@H]2[C@@H]3OC[C@H]2O[C@@H](O)[C@H]3O)[C@@H](O)[C@H](O)[C@@H]1O
REMARK SMILES IDX 9 1 21 2 23 3 25 4 7 5 8 6 10 7 11 8 14 9 15 10 13 11 16 12
REMARK SMILES IDX 12 13 17 14 19 15 18 16 20 18 22 20 24 22 6 24 5 25 2 26
REMARK SMILES IDX 1 27 3 28 4 29 26 31
REMARK H PARENT 18 17 20 19 22 21 24 23 4 30 26 32
ROOT
ATOM      1  C   UNL     1      -2.050 -12.177  -8.608  1.00  0.00    +0.282 C 
ATOM      2  C   UNL     1      -2.693 -11.394  -7.447  1.00  0.00    +0.202 C 
ATOM      3  C   UNL     1      -2.526 -12.208  -6.176  1.00  0.00    +0.179 C 
ATOM      4  C   UNL     1      -1.036 -12.328  -5.844  1.00  0.00    +0.177 C 
ATOM      5  C   UNL     1      -0.148 -12.473  -7.103  1.00  0.00    +0.180 C 
ATOM      6  O   UNL     1      -0.892 -12.928  -8.249  1.00  0.00    -0.341 OA
ENDROOT
BRANCH   1   7
ATOM      7  O   UNL     1      -1.815 -11.258  -9.678  1.00  0.00    -0.341 OA
BRANCH   7   8
ATOM      8  C   UNL     1      -2.020 -11.836 -10.963  1.00  0.00    +0.184 C 
ATOM      9  C   UNL     1      -1.560 -12.034 -13.253  1.00  0.00    +0.195 C 
ATOM     10  C   UNL     1      -0.879 -11.625 -11.946  1.00  0.00    +0.179 C 
ATOM     11  O   UNL     1      -2.953 -11.652 -13.111  1.00  0.00    -0.370 OA
ATOM     12  O   UNL     1      -0.453 -10.250 -11.932  1.00  0.00    -0.342 OA
ATOM     13  C   UNL     1      -3.102 -11.125 -11.767  1.00  0.00    +0.184 C 
ATOM     14  C   UNL     1      -1.437  -9.282 -12.279  1.00  0.00    +0.279 C 
ATOM     15  C   UNL     1      -2.855  -9.610 -11.762  1.00  0.00    +0.202 C 
BRANCH  14  16
ATOM     16  O   UNL     1      -1.448  -9.129 -13.696  1.00  0.00    -0.366 OA
ATOM     17  H   UNL     1      -0.515  -9.218 -13.959  1.00  0.00    +0.213 HD
ENDBRANCH  14  16
BRANCH  15  18
ATOM     18  O   UNL     1      -3.852  -8.941 -12.547  1.00  0.00    -0.385 OA
ATOM     19  H   UNL     1      -4.367  -9.673 -12.949  1.00  0.00    +0.211 HD
ENDBRANCH  15  18
ENDBRANCH   7   8
ENDBRANCH   1   7
BRANCH   2  20
ATOM     20  O   UNL     1      -4.093 -11.164  -7.680  1.00  0.00    -0.385 OA
ATOM     21  H   UNL     1      -4.517 -12.045  -7.669  1.00  0.00    +0.211 HD
ENDBRANCH   2  20
BRANCH   3  22
ATOM     22  O   UNL     1      -3.206 -11.573  -5.080  1.00  0.00    -0.387 OA
ATOM     23  H   UNL     1      -4.144 -11.525  -5.361  1.00  0.00    +0.211 HD
ENDBRANCH   3  22
BRANCH   5  24
ATOM     24  C   UNL     1       0.720 -11.245  -7.434  1.00  0.00    +0.220 C 
BRANCH  24  25
ATOM     25  O   UNL     1       1.709 -11.103  -6.416  1.00  0.00    -0.245 OA
BRANCH  25  26
ATOM     26  S   UNL     1       3.268 -11.170  -6.862  1.00  0.00    +0.397 S 
ATOM     27  O   UNL     1       3.392 -11.863  -8.124  1.00  0.00    -0.169 OA
ATOM     28  O   UNL     1       4.056 -11.529  -5.705  1.00  0.00    -0.169 OA
BRANCH  26  29
ATOM     29  O   UNL     1       3.607  -9.618  -7.123  1.00  0.00    -0.264 OA
ATOM     30  H   UNL     1       3.077  -9.336  -7.895  1.00  0.00    +0.236 HD
ENDBRANCH  26  29
ENDBRANCH  25  26
ENDBRANCH  24  25
ENDBRANCH   5  24
BRANCH   4  31
ATOM     31  O   UNL     1      -0.640 -11.204  -5.050  1.00  0.00    -0.387 OA
ATOM     32  H   UNL     1      -1.355 -10.541  -5.179  1.00  0.00    +0.211 HD
ENDBRANCH   4  31
TORSDOF 11
ENDMDL
MODEL 4
REMARK VINA RESULT:    -5.791      2.866      6.202
REMARK INTER + INTRA:          -9.667
REMARK INTER:                  -8.695
REMARK INTRA:                  -0.972
REMARK UNBOUND:                -1.168
REMARK SMILES O=S(=O)(O)OC[C@@H]1O[C@H](O[C@H]2[C@@H]3OC[C@H]2O[C@@H](O)[C@H]3O)[C@@H](O)[C@H](O)[C@@H]1O
REMARK SMILES IDX 9 1 21 2 23 3 25 4 7 5 8 6 10 7 11 8 14 9 15 10 13 11 16 12
REMARK SMILES IDX 12 13 17 14 19 15 18 16 20 18 22 20 24 22 6 24 5 25 2 26
REMARK SMILES IDX 1 27 3 28 4 29 26 31
REMARK H PARENT 18 17 20 19 22 21 24 23 4 30 26 32
ROOT
ATOM      1  C   UNL     1      -0.984 -10.728  -9.042  1.00  0.00    +0.282 C 
ATOM      2  C   UNL     1      -1.531  -9.731  -8.002  1.00  0.00    +0.202 C 
ATOM      3  C   UNL     1      -0.790  -8.416  -8.171  1.00  0.00    +0.179 C 
ATOM      4  C   UNL     1      -1.112  -7.826  -9.547  1.00  0.00    +0.177 C 
ATOM      5  C   UNL     1      -1.248  -8.906 -10.648  1.00  0.00    +0.180 C 
ATOM      6  O   UNL     1      -0.604 -10.142 -10.286  1.00  0.00    -0.341 OA
ENDROOT
BRANCH   1   7
ATOM      7  O   UNL     1      -1.942 -11.781  -9.185  1.00  0.00    -0.341 OA
BRANCH   7   8
ATOM      8  C   UNL     1      -1.347 -13.033  -9.508  1.00  0.00    +0.184 C 
ATOM      9  C   UNL     1      -1.434 -15.349  -9.856  1.00  0.00    +0.195 C 
ATOM     10  C   UNL     1      -2.328 -14.111  -9.941  1.00  0.00    +0.179 C 
ATOM     11  O   UNL     1      -0.513 -15.099  -8.763  1.00  0.00    -0.370 OA
ATOM     12  O   UNL     1      -3.452 -14.157  -9.043  1.00  0.00    -0.342 OA
ATOM     13  C   UNL     1      -0.791 -13.757  -8.286  1.00  0.00    +0.184 C 
ATOM     14  C   UNL     1      -3.158 -14.439  -7.679  1.00  0.00    +0.279 C 
ATOM     15  C   UNL     1      -1.846 -13.800  -7.172  1.00  0.00    +0.202 C 
BRANCH  14  16
ATOM     16  O   UNL     1      -3.123 -15.852  -7.501  1.00  0.00    -0.366 OA
ATOM     17  H   UNL     1      -3.285 -16.215  -8.390  1.00  0.00    +0.213 HD
ENDBRANCH  14  16
BRANCH  15  18
ATOM     18  O   UNL     1      -1.339 -14.510  -6.034  1.00  0.00    -0.385 OA
ATOM     19  H   UNL     1      -0.372 -14.346  -6.065  1.00  0.00    +0.211 HD
ENDBRANCH  15  18
ENDBRANCH   7   8
ENDBRANCH   1   7
BRANCH   2  20
ATOM     20  O   UNL     1      -1.340 -10.212  -6.661  1.00  0.00    -0.385 OA
ATOM     21  H   UNL     1      -2.150 -10.710  -6.434  1.00  0.00    +0.211 HD
ENDBRANCH   2  20
BRANCH   3  22
ATOM     22  O   UNL     1      -1.187  -7.482  -7.152  1.00  0.00    -0.387 OA
ATOM     23  H   UNL     1      -0.389  -7.368  -6.593  1.00  0.00    +0.211 HD
ENDBRANCH   3  22
BRANCH   5  24
ATOM     24  C   UNL     1      -2.680  -9.134 -11.164  1.00  0.00    +0.220 C 
BRANCH  24  25
ATOM     25  O   UNL     1      -2.751  -8.687 -12.516  1.00  0.00    -0.245 OA
BRANCH  25  26
ATOM     26  S   UNL     1      -2.433  -9.766 -13.687  1.00  0.00    +0.397 S 
ATOM     27  O   UNL     1      -3.369  -9.601 -14.777  1.00  0.00    -0.169 OA
ATOM     28  O   UNL     1      -2.190 -11.049 -13.069  1.00  0.00    -0.169 OA
BRANCH  26  29
ATOM     29  O   UNL     1      -0.989  -9.280 -14.206  1.00  0.00    -0.264 OA
ATOM     30  H   UNL     1      -1.094  -9.026 -15.145  1.00  0.00    +0.236 HD
ENDBRANCH  26  29
ENDBRANCH  25  26
ENDBRANCH  24  25
ENDBRANCH   5  24
BRANCH   4  31
ATOM     31  O   UNL     1      -2.295  -7.026  -9.450  1.00  0.00    -0.387 OA
ATOM     32  H   UNL     1      -2.553  -7.072  -8.502  1.00  0.00    +0.211 HD
ENDBRANCH   4  31
TORSDOF 11
ENDMDL
MODEL 5
REMARK VINA RESULT:    -5.715      2.782      3.497
REMARK INTER + INTRA:          -9.555
REMARK INTER:                  -8.320
REMARK INTRA:                  -1.235
REMARK UNBOUND:                -1.168
REMARK SMILES O=S(=O)(O)OC[C@@H]1O[C@H](O[C@H]2[C@@H]3OC[C@H]2O[C@@H](O)[C@H]3O)[C@@H](O)[C@H](O)[C@@H]1O
REMARK SMILES IDX 9 1 21 2 23 3 25 4 7 5 8 6 10 7 11 8 14 9 15 10 13 11 16 12
REMARK SMILES IDX 12 13 17 14 19 15 18 16 20 18 22 20 24 22 6 24 5 25 2 26
REMARK SMILES IDX 1 27 3 28 4 29 26 31
REMARK H PARENT 18 17 20 19 22 21 24 23 4 30 26 32
ROOT
ATOM      1  C   UNL     1      -1.192 -11.581  -9.706  1.00  0.00    +0.282 C 
ATOM      2  C   UNL     1      -1.030 -10.307  -8.855  1.00  0.00    +0.202 C 
ATOM      3  C   UNL     1      -0.826 -10.725  -7.409  1.00  0.00    +0.179 C 
ATOM      4  C   UNL     1       0.490 -11.498  -7.286  1.00  0.00    +0.177 C 
ATOM      5  C   UNL     1       0.775 -12.400  -8.511  1.00  0.00    +0.180 C 
ATOM      6  O   UNL     1      -0.416 -12.694  -9.265  1.00  0.00    -0.341 OA
ENDROOT
BRANCH   1   7
ATOM      7  O   UNL     1      -0.947 -11.230 -11.070  1.00  0.00    -0.341 OA
BRANCH   7   8
ATOM      8  C   UNL     1      -1.885 -11.811 -11.971  1.00  0.00    +0.184 C 
ATOM      9  C   UNL     1      -2.850 -12.064 -14.092  1.00  0.00    +0.195 C 
ATOM     10  C   UNL     1      -1.520 -11.681 -13.441  1.00  0.00    +0.179 C 
ATOM     11  O   UNL     1      -3.883 -11.595 -13.186  1.00  0.00    -0.370 OA
ATOM     12  O   UNL     1      -1.107 -10.335 -13.739  1.00  0.00    -0.342 OA
ATOM     13  C   UNL     1      -3.201 -11.044 -12.030  1.00  0.00    +0.184 C 
ATOM     14  C   UNL     1      -2.066  -9.312 -13.495  1.00  0.00    +0.279 C 
ATOM     15  C   UNL     1      -2.933  -9.547 -12.238  1.00  0.00    +0.202 C 
BRANCH  14  16
ATOM     16  O   UNL     1      -2.892  -9.176 -14.648  1.00  0.00    -0.366 OA
ATOM     17  H   UNL     1      -2.861 -10.050 -15.076  1.00  0.00    +0.213 HD
ENDBRANCH  14  16
BRANCH  15  18
ATOM     18  O   UNL     1      -4.170  -8.828 -12.329  1.00  0.00    -0.385 OA
ATOM     19  H   UNL     1      -3.893  -7.903 -12.502  1.00  0.00    +0.211 HD
ENDBRANCH  15  18
ENDBRANCH   7   8
ENDBRANCH   1   7
BRANCH   2  20
ATOM     20  O   UNL     1      -2.192  -9.465  -8.943  1.00  0.00    -0.385 OA
ATOM     21  H   UNL     1      -1.917  -8.676  -9.449  1.00  0.00    +0.211 HD
ENDBRANCH   2  20
BRANCH   3  22
ATOM     22  O   UNL     1      -0.778  -9.570  -6.554  1.00  0.00    -0.387 OA
ATOM     23  H   UNL     1       0.096  -9.622  -6.113  1.00  0.00    +0.211 HD
ENDBRANCH   3  22
BRANCH   5  24
ATOM     24  C   UNL     1       1.925 -11.926  -9.418  1.00  0.00    +0.220 C 
BRANCH  24  25
ATOM     25  O   UNL     1       3.134 -12.538  -8.973  1.00  0.00    -0.245 OA
BRANCH  25  26
ATOM     26  S   UNL     1       4.510 -11.688  -9.118  1.00  0.00    +0.397 S 
ATOM     27  O   UNL     1       4.667 -11.230 -10.479  1.00  0.00    -0.169 OA
ATOM     28  O   UNL     1       5.557 -12.399  -8.419  1.00  0.00    -0.169 OA
BRANCH  26  29
ATOM     29  O   UNL     1       4.206 -10.401  -8.200  1.00  0.00    -0.264 OA
ATOM     30  H   UNL     1       3.804 -10.731  -7.371  1.00  0.00    +0.236 HD
ENDBRANCH  26  29
ENDBRANCH  25  26
ENDBRANCH  24  25
ENDBRANCH   5  24
BRANCH   4  31
ATOM     31  O   UNL     1       1.558 -10.571  -7.059  1.00  0.00    -0.387 OA
ATOM     32  H   UNL     1       2.035 -10.522  -7.918  1.00  0.00    +0.211 HD
ENDBRANCH   4  31
TORSDOF 11
ENDMDL
MODEL 6
REMARK VINA RESULT:    -5.635      6.136     10.008
REMARK INTER + INTRA:          -9.439
REMARK INTER:                  -8.331
REMARK INTRA:                  -1.108
REMARK UNBOUND:                -1.168
REMARK SMILES O=S(=O)(O)OC[C@@H]1O[C@H](O[C@H]2[C@@H]3OC[C@H]2O[C@@H](O)[C@H]3O)[C@@H](O)[C@H](O)[C@@H]1O
REMARK SMILES IDX 9 1 21 2 23 3 25 4 7 5 8 6 10 7 11 8 14 9 15 10 13 11 16 12
REMARK SMILES IDX 12 13 17 14 19 15 18 16 20 18 22 20 24 22 6 24 5 25 2 26
REMARK SMILES IDX 1 27 3 28 4 29 26 31
REMARK H PARENT 18 17 20 19 22 21 24 23 4 30 26 32
ROOT
ATOM      1  C   UNL     1       5.381 -14.273  -6.469  1.00  0.00    +0.282 C 
ATOM      2  C   UNL     1       6.240 -13.063  -6.885  1.00  0.00    +0.202 C 
ATOM      3  C   UNL     1       5.844 -12.662  -8.295  1.00  0.00    +0.179 C 
ATOM      4  C   UNL     1       4.391 -12.180  -8.294  1.00  0.00    +0.177 C 
ATOM      5  C   UNL     1       3.491 -12.981  -7.323  1.00  0.00    +0.180 C 
ATOM      6  O   UNL     1       4.052 -14.264  -6.988  1.00  0.00    -0.341 OA
ENDROOT
BRANCH   1   7
ATOM      7  O   UNL     1       5.427 -14.374  -5.043  1.00  0.00    -0.341 OA
BRANCH   7   8
ATOM      8  C   UNL     1       4.955 -15.627  -4.560  1.00  0.00    +0.184 C 
ATOM      9  C   UNL     1       3.637 -16.945  -3.138  1.00  0.00    +0.195 C 
ATOM     10  C   UNL     1       3.649 -15.558  -3.782  1.00  0.00    +0.179 C 
ATOM     11  O   UNL     1       5.027 -17.280  -2.893  1.00  0.00    -0.370 OA
ATOM     12  O   UNL     1       3.691 -14.485  -2.824  1.00  0.00    -0.342 OA
ATOM     13  C   UNL     1       5.818 -16.192  -3.437  1.00  0.00    +0.184 C 
ATOM     14  C   UNL     1       4.716 -14.560  -1.839  1.00  0.00    +0.279 C 
ATOM     15  C   UNL     1       6.056 -15.122  -2.363  1.00  0.00    +0.202 C 
BRANCH  14  16
ATOM     16  O   UNL     1       4.243 -15.344  -0.746  1.00  0.00    -0.366 OA
ATOM     17  H   UNL     1       3.485 -15.836  -1.109  1.00  0.00    +0.213 HD
ENDBRANCH  14  16
BRANCH  15  18
ATOM     18  O   UNL     1       6.838 -15.661  -1.289  1.00  0.00    -0.385 OA
ATOM     19  H   UNL     1       6.590 -15.109  -0.516  1.00  0.00    +0.211 HD
ENDBRANCH  15  18
ENDBRANCH   7   8
ENDBRANCH   1   7
BRANCH   2  20
ATOM     20  O   UNL     1       7.642 -13.382  -6.861  1.00  0.00    -0.385 OA
ATOM     21  H   UNL     1       7.698 -14.348  -6.723  1.00  0.00    +0.211 HD
ENDBRANCH   2  20
BRANCH   3  22
ATOM     22  O   UNL     1       6.693 -11.605  -8.773  1.00  0.00    -0.387 OA
ATOM     23  H   UNL     1       6.184 -10.783  -8.611  1.00  0.00    +0.211 HD
ENDBRANCH   3  22
BRANCH   5  24
ATOM     24  C   UNL     1       3.034 -12.210  -6.071  1.00  0.00    +0.220 C 
BRANCH  24  25
ATOM     25  O   UNL     1       1.996 -11.308  -6.449  1.00  0.00    -0.245 OA
BRANCH  25  26
ATOM     26  S   UNL     1       0.460 -11.794  -6.247  1.00  0.00    +0.397 S 
ATOM     27  O   UNL     1       0.397 -12.826  -5.237  1.00  0.00    -0.169 OA
ATOM     28  O   UNL     1      -0.139 -11.955  -7.552  1.00  0.00    -0.169 OA
BRANCH  26  29
ATOM     29  O   UNL     1      -0.230 -10.472  -5.640  1.00  0.00    -0.264 OA
ATOM     30  H   UNL     1      -0.771 -10.759  -4.876  1.00  0.00    +0.236 HD
ENDBRANCH  26  29
ENDBRANCH  25  26
ENDBRANCH  24  25
ENDBRANCH   5  24
BRANCH   4  31
ATOM     31  O   UNL     1       4.361 -10.779  -8.000  1.00  0.00    -0.387 OA
ATOM     32  H   UNL     1       3.987 -10.360  -8.807  1.00  0.00    +0.211 HD
ENDBRANCH   4  31
TORSDOF 11
ENDMDL
MODEL 7
REMARK VINA RESULT:    -5.628      4.334      6.490
REMARK INTER + INTRA:          -9.428
REMARK INTER:                  -8.191
REMARK INTRA:                  -1.237
REMARK UNBOUND:                -1.168
REMARK SMILES O=S(=O)(O)OC[C@@H]1O[C@H](O[C@H]2[C@@H]3OC[C@H]2O[C@@H](O)[C@H]3O)[C@@H](O)[C@H](O)[C@@H]1O
REMARK SMILES IDX 9 1 21 2 23 3 25 4 7 5 8 6 10 7 11 8 14 9 15 10 13 11 16 12
REMARK SMILES IDX 12 13 17 14 19 15 18 16 20 18 22 20 24 22 6 24 5 25 2 26
REMARK SMILES IDX 1 27 3 28 4 29 26 31
REMARK H PARENT 18 17 20 19 22 21 24 23 4 30 26 32
ROOT
ATOM      1  C   UNL     1       1.714 -12.341  -7.922  1.00  0.00    +0.282 C 
ATOM      2  C   UNL     1       2.643 -11.375  -7.162  1.00  0.00    +0.202 C 
ATOM      3  C   UNL     1       3.851 -12.159  -6.679  1.00  0.00    +0.179 C 
ATOM      4  C   UNL     1       4.644 -12.661  -7.889  1.00  0.00    +0.177 C 
ATOM      5  C   UNL     1       3.739 -13.081  -9.072  1.00  0.00    +0.180 C 
ATOM      6  O   UNL     1       2.389 -13.361  -8.656  1.00  0.00    -0.341 OA
ENDROOT
BRANCH   1   7
ATOM      7  O   UNL     1       0.833 -11.556  -8.731  1.00  0.00    -0.341 OA
BRANCH   7   8
ATOM      8  C   UNL     1      -0.536 -11.710  -8.372  1.00  0.00    +0.184 C 
ATOM      9  C   UNL     1      -2.831 -11.426  -8.753  1.00  0.00    +0.195 C 
ATOM     10  C   UNL     1      -1.517 -11.559  -9.524  1.00  0.00    +0.179 C 
ATOM     11  O   UNL     1      -2.499 -10.743  -7.517  1.00  0.00    -0.370 OA
ATOM     12  O   UNL     1      -1.196 -10.395 -10.307  1.00  0.00    -0.342 OA
ATOM     13  C   UNL     1      -1.059 -10.559  -7.521  1.00  0.00    +0.184 C 
ATOM     14  C   UNL     1      -1.221  -9.148  -9.622  1.00  0.00    +0.279 C 
ATOM     15  C   UNL     1      -0.699  -9.215  -8.170  1.00  0.00    +0.202 C 
BRANCH  14  16
ATOM     16  O   UNL     1      -2.552  -8.638  -9.648  1.00  0.00    -0.366 OA
ATOM     17  H   UNL     1      -3.074  -9.340 -10.078  1.00  0.00    +0.213 HD
ENDBRANCH  14  16
BRANCH  15  18
ATOM     18  O   UNL     1      -1.220  -8.131  -7.390  1.00  0.00    -0.385 OA
ATOM     19  H   UNL     1      -1.746  -7.608  -8.033  1.00  0.00    +0.211 HD
ENDBRANCH  15  18
ENDBRANCH   7   8
ENDBRANCH   1   7
BRANCH   2  20
ATOM     20  O   UNL     1       1.978 -10.788  -6.030  1.00  0.00    -0.385 OA
ATOM     21  H   UNL     1       2.414 -11.159  -5.238  1.00  0.00    +0.211 HD
ENDBRANCH   2  20
BRANCH   3  22
ATOM     22  O   UNL     1       4.698 -11.328  -5.869  1.00  0.00    -0.387 OA
ATOM     23  H   UNL     1       5.595 -11.710  -5.971  1.00  0.00    +0.211 HD
ENDBRANCH   3  22
BRANCH   5  24
ATOM     24  C   UNL     1       3.780 -12.141 -10.291  1.00  0.00    +0.220 C 
BRANCH  24  25
ATOM     25  O   UNL     1       4.861 -12.538 -11.132  1.00  0.00    -0.245 OA
BRANCH  25  26
ATOM     26  S   UNL     1       5.794 -11.371 -11.767  1.00  0.00    +0.397 S 
ATOM     27  O   UNL     1       7.085 -11.913 -12.127  1.00  0.00    -0.169 OA
ATOM     28  O   UNL     1       5.656 -10.186 -10.952  1.00  0.00    -0.169 OA
BRANCH  26  29
ATOM     29  O   UNL     1       5.012 -11.024 -13.131  1.00  0.00    -0.264 OA
ATOM     30  H   UNL     1       5.554 -11.372 -13.867  1.00  0.00    +0.236 HD
ENDBRANCH  26  29
ENDBRANCH  25  26
ENDBRANCH  24  25
ENDBRANCH   5  24
BRANCH   4  31
ATOM     31  O   UNL     1       5.586 -11.656  -8.282  1.00  0.00    -0.387 OA
ATOM     32  H   UNL     1       5.689 -11.774  -9.253  1.00  0.00    +0.211 HD
ENDBRANCH   4  31
TORSDOF 11
ENDMDL
MODEL 8
REMARK VINA RESULT:    -5.622      2.314      3.228
REMARK INTER + INTRA:          -9.419
REMARK INTER:                  -8.259
REMARK INTRA:                  -1.160
REMARK UNBOUND:                -1.168
REMARK SMILES O=S(=O)(O)OC[C@@H]1O[C@H](O[C@H]2[C@@H]3OC[C@H]2O[C@@H](O)[C@H]3O)[C@@H](O)[C@H](O)[C@@H]1O
REMARK SMILES IDX 9 1 21 2 23 3 25 4 7 5 8 6 10 7 11 8 14 9 15 10 13 11 16 12
REMARK SMILES IDX 12 13 17 14 19 15 18 16 20 18 22 20 24 22 6 24 5 25 2 26
REMARK SMILES IDX 1 27 3 28 4 29 26 31
REMARK H PARENT 18 17 20 19 22 21 24 23 4 30 26 32
ROOT
ATOM      1  C   UNL     1      -1.976 -10.185  -8.720  1.00  0.00    +0.282 C 
ATOM      2  C   UNL     1      -0.751 -10.514  -7.844  1.00  0.00    +0.202 C 
ATOM      3  C   UNL     1      -1.210 -10.593  -6.398  1.00  0.00    +0.179 C 
ATOM      4  C   UNL     1      -2.183 -11.764  -6.239  1.00  0.00    +0.177 C 
ATOM      5  C   UNL     1      -3.108 -11.950  -7.466  1.00  0.00    +0.180 C 
ATOM      6  O   UNL     1      -3.202 -10.757  -8.267  1.00  0.00    -0.341 OA
ENDROOT
BRANCH   1   7
ATOM      7  O   UNL     1      -1.656 -10.536 -10.069  1.00  0.00    -0.341 OA
BRANCH   7   8
ATOM      8  C   UNL     1      -2.769 -10.426 -10.950  1.00  0.00    +0.184 C 
ATOM      9  C   UNL     1      -4.070 -11.155 -12.759  1.00  0.00    +0.195 C 
ATOM     10  C   UNL     1      -3.121 -11.705 -11.694  1.00  0.00    +0.179 C 
ATOM     11  O   UNL     1      -3.589  -9.821 -13.066  1.00  0.00    -0.370 OA
ATOM     12  O   UNL     1      -1.936 -12.309 -12.243  1.00  0.00    -0.342 OA
ATOM     13  C   UNL     1      -2.473  -9.567 -12.174  1.00  0.00    +0.184 C 
ATOM     14  C   UNL     1      -1.200 -11.520 -13.173  1.00  0.00    +0.279 C 
ATOM     15  C   UNL     1      -1.159 -10.014 -12.830  1.00  0.00    +0.202 C 
BRANCH  14  16
ATOM     16  O   UNL     1      -1.748 -11.718 -14.474  1.00  0.00    -0.366 OA
ATOM     17  H   UNL     1      -2.355 -10.967 -14.600  1.00  0.00    +0.213 HD
ENDBRANCH  14  16
BRANCH  15  18
ATOM     18  O   UNL     1      -0.896  -9.231 -14.001  1.00  0.00    -0.385 OA
ATOM     19  H   UNL     1       0.084  -9.204 -14.052  1.00  0.00    +0.211 HD
ENDBRANCH  15  18
ENDBRANCH   7   8
ENDBRANCH   1   7
BRANCH   2  20
ATOM     20  O   UNL     1       0.266  -9.505  -7.963  1.00  0.00    -0.385 OA
ATOM     21  H   UNL     1      -0.163  -8.659  -7.725  1.00  0.00    +0.211 HD
ENDBRANCH   2  20
BRANCH   3  22
ATOM     22  O   UNL     1      -0.085 -10.791  -5.525  1.00  0.00    -0.387 OA
ATOM     23  H   UNL     1       0.470  -9.991  -5.647  1.00  0.00    +0.211 HD
ENDBRANCH   3  22
BRANCH   5  24
ATOM     24  C   UNL     1      -2.815 -13.195  -8.322  1.00  0.00    +0.220 C 
BRANCH  24  25
ATOM     25  O   UNL     1      -3.627 -14.269  -7.853  1.00  0.00    -0.245 OA
BRANCH  25  26
ATOM     26  S   UNL     1      -5.188 -14.287  -8.297  1.00  0.00    +0.397 S 
ATOM     27  O   UNL     1      -5.369 -13.504  -9.498  1.00  0.00    -0.169 OA
ATOM     28  O   UNL     1      -5.998 -14.084  -7.117  1.00  0.00    -0.169 OA
BRANCH  26  29
ATOM     29  O   UNL     1      -5.408 -15.834  -8.683  1.00  0.00    -0.264 OA
ATOM     30  H   UNL     1      -5.749 -16.282  -7.883  1.00  0.00    +0.236 HD
ENDBRANCH  26  29
ENDBRANCH  25  26
ENDBRANCH  24  25
ENDBRANCH   5  24
BRANCH   4  31
ATOM     31  O   UNL     1      -1.441 -12.956  -5.959  1.00  0.00    -0.387 OA
ATOM     32  H   UNL     1      -2.112 -13.675  -5.951  1.00  0.00    +0.211 HD
ENDBRANCH   4  31
TORSDOF 11
ENDMDL
MODEL 9
REMARK VINA RESULT:    -5.561     24.499     27.388
REMARK INTER + INTRA:          -9.329
REMARK INTER:                  -7.914
REMARK INTRA:                  -1.415
REMARK UNBOUND:                -1.168
REMARK SMILES O=S(=O)(O)OC[C@@H]1O[C@H](O[C@H]2[C@@H]3OC[C@H]2O[C@@H](O)[C@H]3O)[C@@H](O)[C@H](O)[C@@H]1O
REMARK SMILES IDX 9 1 21 2 23 3 25 4 7 5 8 6 10 7 11 8 14 9 15 10 13 11 16 12
REMARK SMILES IDX 12 13 17 14 19 15 18 16 20 18 22 20 24 22 6 24 5 25 2 26
REMARK SMILES IDX 1 27 3 28 4 29 26 31
REMARK H PARENT 18 17 20 19 22 21 24 23 4 30 26 32
ROOT
ATOM      1  C   UNL     1      -2.151 -11.300  16.483  1.00  0.00    +0.282 C 
ATOM      2  C   UNL     1      -2.211 -11.492  14.956  1.00  0.00    +0.202 C 
ATOM      3  C   UNL     1      -3.438 -12.325  14.630  1.00  0.00    +0.179 C 
ATOM      4  C   UNL     1      -4.697 -11.545  15.018  1.00  0.00    +0.177 C 
ATOM      5  C   UNL     1      -4.517 -10.715  16.311  1.00  0.00    +0.180 C 
ATOM      6  O   UNL     1      -3.423 -11.189  17.119  1.00  0.00    -0.341 OA
ENDROOT
BRANCH   1   7
ATOM      7  O   UNL     1      -1.290 -10.191  16.752  1.00  0.00    -0.341 OA
BRANCH   7   8
ATOM      8  C   UNL     1      -0.293 -10.484  17.726  1.00  0.00    +0.184 C 
ATOM      9  C   UNL     1       1.335  -9.856  19.291  1.00  0.00    +0.195 C 
ATOM     10  C   UNL     1       0.046  -9.330  18.657  1.00  0.00    +0.179 C 
ATOM     11  O   UNL     1       1.987 -10.647  18.264  1.00  0.00    -0.370 OA
ATOM     12  O   UNL     1       0.234  -8.118  17.905  1.00  0.00    -0.342 OA
ATOM     13  C   UNL     1       1.095 -10.658  17.120  1.00  0.00    +0.184 C 
ATOM     14  C   UNL     1       1.270  -8.135  16.929  1.00  0.00    +0.279 C 
ATOM     15  C   UNL     1       1.416  -9.482  16.187  1.00  0.00    +0.202 C 
BRANCH  14  16
ATOM     16  O   UNL     1       2.499  -7.781  17.560  1.00  0.00    -0.366 OA
ATOM     17  H   UNL     1       3.136  -8.446  17.245  1.00  0.00    +0.213 HD
ENDBRANCH  14  16
BRANCH  15  18
ATOM     18  O   UNL     1       2.734  -9.625  15.643  1.00  0.00    -0.385 OA
ATOM     19  H   UNL     1       3.324  -9.520  16.420  1.00  0.00    +0.211 HD
ENDBRANCH  15  18
ENDBRANCH   7   8
ENDBRANCH   1   7
BRANCH   2  20
ATOM     20  O   UNL     1      -1.039 -12.165  14.464  1.00  0.00    -0.385 OA
ATOM     21  H   UNL     1      -0.671 -12.657  15.225  1.00  0.00    +0.211 HD
ENDBRANCH   2  20
BRANCH   3  22
ATOM     22  O   UNL     1      -3.482 -12.626  13.225  1.00  0.00    -0.387 OA
ATOM     23  H   UNL     1      -2.711 -12.154  12.844  1.00  0.00    +0.211 HD
ENDBRANCH   3  22
BRANCH   5  24
ATOM     24  C   UNL     1      -4.459  -9.190  16.105  1.00  0.00    +0.220 C 
BRANCH  24  25
ATOM     25  O   UNL     1      -5.352  -8.574  17.030  1.00  0.00    -0.245 OA
BRANCH  25  26
ATOM     26  S   UNL     1      -4.800  -8.265  18.524  1.00  0.00    +0.397 S 
ATOM     27  O   UNL     1      -5.236  -9.298  19.436  1.00  0.00    -0.169 OA
ATOM     28  O   UNL     1      -5.000  -6.860  18.800  1.00  0.00    -0.169 OA
BRANCH  26  29
ATOM     29  O   UNL     1      -3.209  -8.422  18.332  1.00  0.00    -0.264 OA
ATOM     30  H   UNL     1      -2.983  -9.344  18.570  1.00  0.00    +0.236 HD
ENDBRANCH  26  29
ENDBRANCH  25  26
ENDBRANCH  24  25
ENDBRANCH   5  24
BRANCH   4  31
ATOM     31  O   UNL     1      -5.095 -10.720  13.917  1.00  0.00    -0.387 OA
ATOM     32  H   UNL     1      -5.817 -10.156  14.274  1.00  0.00    +0.211 HD
ENDBRANCH   4  31
TORSDOF 11
ENDMDL
