MODEL 1
REMARK VINA RESULT:    -7.382      0.000      0.000
REMARK INTER + INTRA:         -17.097
REMARK INTER:                 -15.151
REMARK INTRA:                  -1.947
REMARK UNBOUND:                -1.947
REMARK SMILES O=C[C@@H](O)[C@@H](O)[C@H](CO)O[C@H]1OC[C@@H](O[C@@H]2OC[C@H](O[C@H]3OC[C@H](O[C@H]4OC[C@H](O)[C@H](O)[C@@H]4O)[C@@H](O)[C@H]3O)[C@H](O)[C@@H]2O)[C@@H](O)[C@H]1O
REMARK SMILES IDX 15 1 16 2 19 3 18 4 39 5 17 6 41 7 20 8 21 9 24 10 23 11
REMARK SMILES IDX 35 12 22 13 37 14 25 15 26 16 28 17 29 18 27 19 31 20 33 21
REMARK SMILES IDX 30 22 32 24 34 26 36 28 38 30 40 32 42 34 14 36 13 37 43 38
REMARK SMILES IDX 12 39 45 40 11 41 44 42 46 44 10 46 7 47 8 48 9 49 5 51 3 52
REMARK SMILES IDX 2 53 1 54 4 55 6 57
REMARK H PARENT 30 23 32 25 34 27 36 29 38 31 40 33 42 35 44 43 46 45 9 50
REMARK H PARENT 4 56 6 58
ROOT
ATOM      1  O   UNL     1       2.267   8.436 -14.256  1.00  0.00    -0.341 OA
ENDROOT
BRANCH   1   2
ATOM      2  C   UNL     1       1.129   8.067 -15.040  1.00  0.00    +0.282 C 
ATOM      3  C   UNL     1      -1.527   9.253 -15.618  1.00  0.00    +0.179 C 
ATOM      4  C   UNL     1      -0.162   9.942 -15.782  1.00  0.00    +0.198 C 
ATOM      5  C   UNL     1      -1.362   7.869 -14.948  1.00  0.00    +0.179 C 
ATOM      6  O   UNL     1       0.863   9.002 -16.092  1.00  0.00    -0.347 OA
ATOM      7  C   UNL     1      -0.084   7.807 -14.109  1.00  0.00    +0.202 C 
BRANCH   3   8
ATOM      8  O   UNL     1      -2.439  10.029 -14.823  1.00  0.00    -0.341 OA
BRANCH   8   9
ATOM      9  C   UNL     1      -2.827  11.276 -15.413  1.00  0.00    +0.282 C 
ATOM     10  C   UNL     1      -5.242  10.932 -14.096  1.00  0.00    +0.179 C 
ATOM     11  C   UNL     1      -5.234  11.287 -15.588  1.00  0.00    +0.198 C 
ATOM     12  C   UNL     1      -4.190  11.776 -13.348  1.00  0.00    +0.179 C 
ATOM     13  O   UNL     1      -3.976  11.098 -16.242  1.00  0.00    -0.347 OA
ATOM     14  C   UNL     1      -3.096  12.304 -14.294  1.00  0.00    +0.202 C 
BRANCH  10  15
ATOM     15  O   UNL     1      -6.578  11.133 -13.611  1.00  0.00    -0.341 OA
BRANCH  15  16
ATOM     16  C   UNL     1      -6.729  12.312 -12.810  1.00  0.00    +0.282 C 
ATOM     17  C   UNL     1      -8.216  14.133 -12.494  1.00  0.00    +0.198 C 
ATOM     18  C   UNL     1      -8.864  13.572 -11.224  1.00  0.00    +0.171 C 
ATOM     19  O   UNL     1      -7.807  13.081 -13.362  1.00  0.00    -0.347 OA
ATOM     20  C   UNL     1      -8.505  12.089 -11.021  1.00  0.00    +0.179 C 
ATOM     21  C   UNL     1      -7.030  11.858 -11.357  1.00  0.00    +0.202 C 
BRANCH  18  22
ATOM     22  O   UNL     1      -8.440  14.324 -10.075  1.00  0.00    -0.388 OA
ATOM     23  H   UNL     1      -7.494  14.539 -10.221  1.00  0.00    +0.211 HD
ENDBRANCH  18  22
BRANCH  20  24
ATOM     24  O   UNL     1      -8.740  11.712  -9.652  1.00  0.00    -0.387 OA
ATOM     25  H   UNL     1      -8.856  10.738  -9.656  1.00  0.00    +0.211 HD
ENDBRANCH  20  24
BRANCH  21  26
ATOM     26  O   UNL     1      -6.245  12.623 -10.411  1.00  0.00    -0.385 OA
ATOM     27  H   UNL     1      -5.416  12.820 -10.894  1.00  0.00    +0.211 HD
ENDBRANCH  21  26
ENDBRANCH  15  16
ENDBRANCH  10  15
BRANCH  12  28
ATOM     28  O   UNL     1      -3.596  10.969 -12.309  1.00  0.00    -0.387 OA
ATOM     29  H   UNL     1      -2.831  10.518 -12.721  1.00  0.00    +0.211 HD
ENDBRANCH  12  28
BRANCH  14  30
ATOM     30  O   UNL     1      -1.915  12.605 -13.537  1.00  0.00    -0.385 OA
ATOM     31  H   UNL     1      -2.123  12.447 -12.597  1.00  0.00    +0.211 HD
ENDBRANCH  14  30
ENDBRANCH   8   9
ENDBRANCH   3   8
BRANCH   5  32
ATOM     32  O   UNL     1      -2.494   7.561 -14.121  1.00  0.00    -0.387 OA
ATOM     33  H   UNL     1      -2.131   7.387 -13.226  1.00  0.00    +0.211 HD
ENDBRANCH   5  32
BRANCH   7  34
ATOM     34  O   UNL     1      -0.169   8.789 -13.057  1.00  0.00    -0.385 OA
ATOM     35  H   UNL     1       0.315   8.404 -12.301  1.00  0.00    +0.211 HD
ENDBRANCH   7  34
ENDBRANCH   1   2
BRANCH   1  36
ATOM     36  C   UNL     1       2.909   7.330 -13.619  1.00  0.00    +0.179 C 
ATOM     37  C   UNL     1       3.591   7.782 -12.328  1.00  0.00    +0.198 C 
ATOM     38  C   UNL     1       3.961   6.724 -14.572  1.00  0.00    +0.179 C 
ATOM     39  O   UNL     1       4.173   6.692 -11.602  1.00  0.00    -0.347 OA
ATOM     40  C   UNL     1       5.159   6.131 -13.812  1.00  0.00    +0.202 C 
ATOM     41  C   UNL     1       4.709   5.641 -12.419  1.00  0.00    +0.282 C 
BRANCH  38  42
ATOM     42  O   UNL     1       4.460   7.709 -15.501  1.00  0.00    -0.387 OA
ATOM     43  H   UNL     1       4.640   8.512 -14.964  1.00  0.00    +0.211 HD
ENDBRANCH  38  42
BRANCH  40  44
ATOM     44  O   UNL     1       6.185   7.141 -13.693  1.00  0.00    -0.385 OA
ATOM     45  H   UNL     1       6.972   6.654 -13.369  1.00  0.00    +0.211 HD
ENDBRANCH  40  44
BRANCH  41  46
ATOM     46  O   UNL     1       5.818   5.032 -11.758  1.00  0.00    -0.341 OA
BRANCH  46  47
ATOM     47  C   UNL     1       5.458   3.993 -10.832  1.00  0.00    +0.178 C 
BRANCH  47  48
ATOM     48  C   UNL     1       4.077   3.458 -11.228  1.00  0.00    +0.191 C 
BRANCH  48  49
ATOM     49  O   UNL     1       3.227   3.355 -10.094  1.00  0.00    -0.394 OA
ATOM     50  H   UNL     1       3.711   3.750  -9.346  1.00  0.00    +0.210 HD
ENDBRANCH  48  49
ENDBRANCH  47  48
BRANCH  47  51
ATOM     51  C   UNL     1       6.569   2.910 -10.800  1.00  0.00    +0.181 C 
BRANCH  51  52
ATOM     52  C   UNL     1       6.059   1.472 -10.608  1.00  0.00    +0.209 C 
BRANCH  52  53
ATOM     53  C   UNL     1       7.214   0.497 -10.789  1.00  0.00    +0.258 C 
ATOM     54  O   UNL     1       7.565   0.088 -11.897  1.00  0.00    -0.300 OA
ENDBRANCH  52  53
BRANCH  52  55
ATOM     55  O   UNL     1       5.497   1.269  -9.311  1.00  0.00    -0.383 OA
ATOM     56  H   UNL     1       6.245   1.012  -8.732  1.00  0.00    +0.211 HD
ENDBRANCH  52  55
ENDBRANCH  51  52
BRANCH  51  57
ATOM     57  O   UNL     1       7.312   2.961 -12.039  1.00  0.00    -0.387 OA
ATOM     58  H   UNL     1       6.803   3.537 -12.653  1.00  0.00    +0.211 HD
ENDBRANCH  51  57
ENDBRANCH  47  51
ENDBRANCH  46  47
ENDBRANCH  41  46
ENDBRANCH   1  36
TORSDOF 24
ENDMDL
MODEL 2
REMARK VINA RESULT:    -7.049      1.433      2.109
REMARK INTER + INTRA:         -16.414
REMARK INTER:                 -14.552
REMARK INTRA:                  -1.862
REMARK UNBOUND:                -1.947
REMARK SMILES O=C[C@@H](O)[C@@H](O)[C@H](CO)O[C@H]1OC[C@@H](O[C@@H]2OC[C@H](O[C@H]3OC[C@H](O[C@H]4OC[C@H](O)[C@H](O)[C@@H]4O)[C@@H](O)[C@H]3O)[C@H](O)[C@@H]2O)[C@@H](O)[C@H]1O
REMARK SMILES IDX 15 1 16 2 19 3 18 4 39 5 17 6 41 7 20 8 21 9 24 10 23 11
REMARK SMILES IDX 35 12 22 13 37 14 25 15 26 16 28 17 29 18 27 19 31 20 33 21
REMARK SMILES IDX 30 22 32 24 34 26 36 28 38 30 40 32 42 34 14 36 13 37 43 38
REMARK SMILES IDX 12 39 45 40 11 41 44 42 46 44 10 46 7 47 8 48 9 49 5 51 3 52
REMARK SMILES IDX 2 53 1 54 4 55 6 57
REMARK H PARENT 30 23 32 25 34 27 36 29 38 31 40 33 42 35 44 43 46 45 9 50
REMARK H PARENT 4 56 6 58
ROOT
ATOM      1  O   UNL     1       0.475   8.849 -13.618  1.00  0.00    -0.341 OA
ENDROOT
BRANCH   1   2
ATOM      2  C   UNL     1      -0.567   8.420 -14.499  1.00  0.00    +0.282 C 
ATOM      3  C   UNL     1      -3.232   9.449 -15.295  1.00  0.00    +0.179 C 
ATOM      4  C   UNL     1      -1.904  10.221 -15.336  1.00  0.00    +0.198 C 
ATOM      5  C   UNL     1      -3.039   8.069 -14.621  1.00  0.00    +0.179 C 
ATOM      6  O   UNL     1      -0.799   9.350 -15.564  1.00  0.00    -0.347 OA
ATOM      7  C   UNL     1      -1.836   8.076 -13.677  1.00  0.00    +0.202 C 
BRANCH   3   8
ATOM      8  O   UNL     1      -4.255  10.158 -14.575  1.00  0.00    -0.341 OA
BRANCH   8   9
ATOM      9  C   UNL     1      -4.563  11.452 -15.105  1.00  0.00    +0.282 C 
ATOM     10  C   UNL     1      -6.974  11.223 -13.756  1.00  0.00    +0.179 C 
ATOM     11  C   UNL     1      -6.966  11.639 -15.232  1.00  0.00    +0.198 C 
ATOM     12  C   UNL     1      -5.852  11.959 -12.996  1.00  0.00    +0.179 C 
ATOM     13  O   UNL     1      -5.736  11.391 -15.918  1.00  0.00    -0.347 OA
ATOM     14  C   UNL     1      -4.740  12.449 -13.941  1.00  0.00    +0.202 C 
BRANCH  10  15
ATOM     15  O   UNL     1      -8.284  11.497 -13.237  1.00  0.00    -0.341 OA
BRANCH  15  16
ATOM     16  C   UNL     1      -8.283  12.367 -12.099  1.00  0.00    +0.282 C 
ATOM     17  C   UNL     1      -9.170  14.447 -11.382  1.00  0.00    +0.198 C 
ATOM     18  C   UNL     1     -10.281  13.840 -10.518  1.00  0.00    +0.171 C 
ATOM     19  O   UNL     1      -8.880  13.609 -12.497  1.00  0.00    -0.347 OA
ATOM     20  C   UNL     1     -10.461  12.340 -10.810  1.00  0.00    +0.179 C 
ATOM     21  C   UNL     1      -9.094  11.672 -10.973  1.00  0.00    +0.202 C 
BRANCH  18  22
ATOM     22  O   UNL     1      -9.980  14.019  -9.124  1.00  0.00    -0.388 OA
ATOM     23  H   UNL     1      -9.601  14.920  -9.038  1.00  0.00    +0.211 HD
ENDBRANCH  18  22
BRANCH  20  24
ATOM     24  O   UNL     1     -11.165  11.710  -9.724  1.00  0.00    -0.387 OA
ATOM     25  H   UNL     1     -11.141  12.349  -8.980  1.00  0.00    +0.211 HD
ENDBRANCH  20  24
BRANCH  21  26
ATOM     26  O   UNL     1      -8.403  11.782  -9.705  1.00  0.00    -0.385 OA
ATOM     27  H   UNL     1      -7.490  12.035  -9.951  1.00  0.00    +0.211 HD
ENDBRANCH  21  26
ENDBRANCH  15  16
ENDBRANCH  10  15
BRANCH  12  28
ATOM     28  O   UNL     1      -5.300  11.070 -12.002  1.00  0.00    -0.387 OA
ATOM     29  H   UNL     1      -4.399  10.844 -12.313  1.00  0.00    +0.211 HD
ENDBRANCH  12  28
BRANCH  14  30
ATOM     30  O   UNL     1      -3.528  12.634 -13.196  1.00  0.00    -0.385 OA
ATOM     31  H   UNL     1      -3.342  13.591 -13.176  1.00  0.00    +0.211 HD
ENDBRANCH  14  30
ENDBRANCH   8   9
ENDBRANCH   3   8
BRANCH   5  32
ATOM     32  O   UNL     1      -4.217   7.683 -13.896  1.00  0.00    -0.387 OA
ATOM     33  H   UNL     1      -4.750   7.146 -14.522  1.00  0.00    +0.211 HD
ENDBRANCH   5  32
BRANCH   7  34
ATOM     34  O   UNL     1      -2.070   9.039 -12.630  1.00  0.00    -0.385 OA
ATOM     35  H   UNL     1      -1.618   9.854 -12.920  1.00  0.00    +0.211 HD
ENDBRANCH   7  34
ENDBRANCH   1   2
BRANCH   1  36
ATOM     36  C   UNL     1       1.455   7.843 -13.354  1.00  0.00    +0.179 C 
ATOM     37  C   UNL     1       2.134   8.101 -12.010  1.00  0.00    +0.198 C 
ATOM     38  C   UNL     1       2.515   7.844 -14.475  1.00  0.00    +0.179 C 
ATOM     39  O   UNL     1       3.061   7.069 -11.653  1.00  0.00    -0.347 OA
ATOM     40  C   UNL     1       3.905   7.434 -13.960  1.00  0.00    +0.202 C 
ATOM     41  C   UNL     1       3.760   6.477 -12.758  1.00  0.00    +0.282 C 
BRANCH  38  42
ATOM     42  O   UNL     1       2.628   9.144 -15.091  1.00  0.00    -0.387 OA
ATOM     43  H   UNL     1       2.116   9.086 -15.927  1.00  0.00    +0.211 HD
ENDBRANCH  38  42
BRANCH  40  44
ATOM     44  O   UNL     1       4.634   8.622 -13.584  1.00  0.00    -0.385 OA
ATOM     45  H   UNL     1       5.090   8.377 -12.751  1.00  0.00    +0.211 HD
ENDBRANCH  40  44
BRANCH  41  46
ATOM     46  O   UNL     1       5.057   6.054 -12.340  1.00  0.00    -0.341 OA
BRANCH  46  47
ATOM     47  C   UNL     1       5.491   4.813 -12.921  1.00  0.00    +0.178 C 
BRANCH  47  48
ATOM     48  C   UNL     1       6.576   5.124 -13.958  1.00  0.00    +0.191 C 
BRANCH  48  49
ATOM     49  O   UNL     1       6.844   6.520 -14.012  1.00  0.00    -0.394 OA
ATOM     50  H   UNL     1       5.982   6.971 -13.962  1.00  0.00    +0.210 HD
ENDBRANCH  48  49
ENDBRANCH  47  48
BRANCH  47  51
ATOM     51  C   UNL     1       5.948   3.840 -11.801  1.00  0.00    +0.181 C 
BRANCH  51  52
ATOM     52  C   UNL     1       4.853   2.888 -11.292  1.00  0.00    +0.209 C 
BRANCH  52  53
ATOM     53  C   UNL     1       5.494   1.763 -10.489  1.00  0.00    +0.258 C 
ATOM     54  O   UNL     1       5.980   0.766 -11.024  1.00  0.00    -0.300 OA
ENDBRANCH  52  53
BRANCH  52  55
ATOM     55  O   UNL     1       3.906   3.555 -10.456  1.00  0.00    -0.383 OA
ATOM     56  H   UNL     1       4.254   3.478  -9.543  1.00  0.00    +0.211 HD
ENDBRANCH  52  55
ENDBRANCH  51  52
BRANCH  51  57
ATOM     57  O   UNL     1       7.046   3.040 -12.294  1.00  0.00    -0.387 OA
ATOM     58  H   UNL     1       6.673   2.163 -12.537  1.00  0.00    +0.211 HD
ENDBRANCH  51  57
ENDBRANCH  47  51
ENDBRANCH  46  47
ENDBRANCH  41  46
ENDBRANCH   1  36
TORSDOF 24
ENDMDL
MODEL 3
REMARK VINA RESULT:    -6.848      3.172     13.982
REMARK INTER + INTRA:         -16.000
REMARK INTER:                 -13.138
REMARK INTRA:                  -2.862
REMARK UNBOUND:                -1.947
REMARK SMILES O=C[C@@H](O)[C@@H](O)[C@H](CO)O[C@H]1OC[C@@H](O[C@@H]2OC[C@H](O[C@H]3OC[C@H](O[C@H]4OC[C@H](O)[C@H](O)[C@@H]4O)[C@@H](O)[C@H]3O)[C@H](O)[C@@H]2O)[C@@H](O)[C@H]1O
REMARK SMILES IDX 15 1 16 2 19 3 18 4 39 5 17 6 41 7 20 8 21 9 24 10 23 11
REMARK SMILES IDX 35 12 22 13 37 14 25 15 26 16 28 17 29 18 27 19 31 20 33 21
REMARK SMILES IDX 30 22 32 24 34 26 36 28 38 30 40 32 42 34 14 36 13 37 43 38
REMARK SMILES IDX 12 39 45 40 11 41 44 42 46 44 10 46 7 47 8 48 9 49 5 51 3 52
REMARK SMILES IDX 2 53 1 54 4 55 6 57
REMARK H PARENT 30 23 32 25 34 27 36 29 38 31 40 33 42 35 44 43 46 45 9 50
REMARK H PARENT 4 56 6 58
ROOT
ATOM      1  O   UNL     1      -8.029  11.543 -11.416  1.00  0.00    -0.341 OA
ENDROOT
BRANCH   1   2
ATOM      2  C   UNL     1      -7.305  12.234 -12.438  1.00  0.00    +0.282 C 
ATOM      3  C   UNL     1      -5.030  11.595 -14.230  1.00  0.00    +0.179 C 
ATOM      4  C   UNL     1      -6.315  10.771 -14.054  1.00  0.00    +0.198 C 
ATOM      5  C   UNL     1      -4.987  12.761 -13.214  1.00  0.00    +0.179 C 
ATOM      6  O   UNL     1      -7.425  11.598 -13.717  1.00  0.00    -0.347 OA
ATOM      7  C   UNL     1      -5.840  12.455 -11.981  1.00  0.00    +0.202 C 
BRANCH   3   8
ATOM      8  O   UNL     1      -3.843  10.803 -14.050  1.00  0.00    -0.341 OA
BRANCH   8   9
ATOM      9  C   UNL     1      -3.476  10.019 -15.191  1.00  0.00    +0.282 C 
ATOM     10  C   UNL     1      -0.874  10.218 -14.255  1.00  0.00    +0.179 C 
ATOM     11  C   UNL     1      -1.179  10.532 -15.725  1.00  0.00    +0.198 C 
ATOM     12  C   UNL     1      -1.646   8.957 -13.815  1.00  0.00    +0.179 C 
ATOM     13  O   UNL     1      -2.563  10.741 -16.018  1.00  0.00    -0.347 OA
ATOM     14  C   UNL     1      -2.865   8.684 -14.715  1.00  0.00    +0.202 C 
BRANCH  10  15
ATOM     15  O   UNL     1       0.549  10.084 -14.127  1.00  0.00    -0.341 OA
BRANCH  15  16
ATOM     16  C   UNL     1       0.975   8.758 -13.787  1.00  0.00    +0.282 C 
ATOM     17  C   UNL     1       2.269   6.971 -14.657  1.00  0.00    +0.198 C 
ATOM     18  C   UNL     1       3.500   7.247 -13.787  1.00  0.00    +0.171 C 
ATOM     19  O   UNL     1       1.577   8.179 -14.953  1.00  0.00    -0.347 OA
ATOM     20  C   UNL     1       3.411   8.628 -13.113  1.00  0.00    +0.179 C 
ATOM     21  C   UNL     1       1.985   8.875 -12.615  1.00  0.00    +0.202 C 
BRANCH  18  22
ATOM     22  O   UNL     1       3.632   6.234 -12.775  1.00  0.00    -0.388 OA
ATOM     23  H   UNL     1       2.762   5.784 -12.722  1.00  0.00    +0.211 HD
ENDBRANCH  18  22
BRANCH  20  24
ATOM     24  O   UNL     1       4.316   8.687 -11.995  1.00  0.00    -0.387 OA
ATOM     25  H   UNL     1       4.076   7.935 -11.413  1.00  0.00    +0.211 HD
ENDBRANCH  20  24
BRANCH  21  26
ATOM     26  O   UNL     1       1.703   7.882 -11.598  1.00  0.00    -0.385 OA
ATOM     27  H   UNL     1       0.791   8.091 -11.307  1.00  0.00    +0.211 HD
ENDBRANCH  21  26
ENDBRANCH  15  16
ENDBRANCH  10  15
BRANCH  12  28
ATOM     28  O   UNL     1      -2.070   9.122 -12.445  1.00  0.00    -0.387 OA
ATOM     29  H   UNL     1      -3.027   9.329 -12.483  1.00  0.00    +0.211 HD
ENDBRANCH  12  28
BRANCH  14  30
ATOM     30  O   UNL     1      -3.813   7.877 -14.002  1.00  0.00    -0.385 OA
ATOM     31  H   UNL     1      -4.424   7.496 -14.660  1.00  0.00    +0.211 HD
ENDBRANCH  14  30
ENDBRANCH   8   9
ENDBRANCH   3   8
BRANCH   5  32
ATOM     32  O   UNL     1      -3.639  13.040 -12.809  1.00  0.00    -0.387 OA
ATOM     33  H   UNL     1      -3.076  12.407 -13.305  1.00  0.00    +0.211 HD
ENDBRANCH   5  32
BRANCH   7  34
ATOM     34  O   UNL     1      -5.305  11.289 -11.323  1.00  0.00    -0.385 OA
ATOM     35  H   UNL     1      -4.574  10.981 -11.892  1.00  0.00    +0.211 HD
ENDBRANCH   7  34
ENDBRANCH   1   2
BRANCH   1  36
ATOM     36  C   UNL     1      -9.037  12.338 -10.789  1.00  0.00    +0.179 C 
ATOM     37  C   UNL     1      -9.540  11.654  -9.518  1.00  0.00    +0.198 C 
ATOM     38  C   UNL     1     -10.215  12.544 -11.763  1.00  0.00    +0.179 C 
ATOM     39  O   UNL     1     -10.487  12.453  -8.800  1.00  0.00    -0.347 OA
ATOM     40  C   UNL     1     -11.562  12.661 -11.029  1.00  0.00    +0.202 C 
ATOM     41  C   UNL     1     -11.345  13.257  -9.623  1.00  0.00    +0.282 C 
BRANCH  38  42
ATOM     42  O   UNL     1     -10.311  11.461 -12.711  1.00  0.00    -0.387 OA
ATOM     43  H   UNL     1     -11.100  11.659 -13.261  1.00  0.00    +0.211 HD
ENDBRANCH  38  42
BRANCH  40  44
ATOM     44  O   UNL     1     -12.162  11.350 -10.943  1.00  0.00    -0.385 OA
ATOM     45  H   UNL     1     -12.546  11.315 -10.041  1.00  0.00    +0.211 HD
ENDBRANCH  40  44
BRANCH  41  46
ATOM     46  O   UNL     1     -12.612  13.422  -8.986  1.00  0.00    -0.341 OA
BRANCH  46  47
ATOM     47  C   UNL     1     -12.582  13.265  -7.558  1.00  0.00    +0.178 C 
BRANCH  47  48
ATOM     48  C   UNL     1     -12.457  14.656  -6.927  1.00  0.00    +0.191 C 
BRANCH  48  49
ATOM     49  O   UNL     1     -12.265  14.562  -5.522  1.00  0.00    -0.394 OA
ATOM     50  H   UNL     1     -11.880  13.684  -5.351  1.00  0.00    +0.210 HD
ENDBRANCH  48  49
ENDBRANCH  47  48
BRANCH  47  51
ATOM     51  C   UNL     1     -13.830  12.469  -7.091  1.00  0.00    +0.181 C 
BRANCH  51  52
ATOM     52  C   UNL     1     -13.999  11.092  -7.754  1.00  0.00    +0.209 C 
BRANCH  52  53
ATOM     53  C   UNL     1     -14.987  11.203  -8.907  1.00  0.00    +0.258 C 
ATOM     54  O   UNL     1     -14.868  10.547  -9.943  1.00  0.00    -0.300 OA
ENDBRANCH  52  53
BRANCH  52  55
ATOM     55  O   UNL     1     -12.765  10.586  -8.265  1.00  0.00    -0.383 OA
ATOM     56  H   UNL     1     -12.389  11.303  -8.816  1.00  0.00    +0.211 HD
ENDBRANCH  52  55
ENDBRANCH  51  52
BRANCH  51  57
ATOM     57  O   UNL     1     -13.754  12.273  -5.661  1.00  0.00    -0.387 OA
ATOM     58  H   UNL     1     -12.827  12.465  -5.395  1.00  0.00    +0.211 HD
ENDBRANCH  51  57
ENDBRANCH  47  51
ENDBRANCH  46  47
ENDBRANCH  41  46
ENDBRANCH   1  36
TORSDOF 24
ENDMDL
MODEL 4
REMARK VINA RESULT:    -6.779      7.999     10.012
REMARK INTER + INTRA:         -15.860
REMARK INTER:                 -12.493
REMARK INTRA:                  -3.367
REMARK UNBOUND:                -1.947
REMARK SMILES O=C[C@@H](O)[C@@H](O)[C@H](CO)O[C@H]1OC[C@@H](O[C@@H]2OC[C@H](O[C@H]3OC[C@H](O[C@H]4OC[C@H](O)[C@H](O)[C@@H]4O)[C@@H](O)[C@H]3O)[C@H](O)[C@@H]2O)[C@@H](O)[C@H]1O
REMARK SMILES IDX 15 1 16 2 19 3 18 4 39 5 17 6 41 7 20 8 21 9 24 10 23 11
REMARK SMILES IDX 35 12 22 13 37 14 25 15 26 16 28 17 29 18 27 19 31 20 33 21
REMARK SMILES IDX 30 22 32 24 34 26 36 28 38 30 40 32 42 34 14 36 13 37 43 38
REMARK SMILES IDX 12 39 45 40 11 41 44 42 46 44 10 46 7 47 8 48 9 49 5 51 3 52
REMARK SMILES IDX 2 53 1 54 4 55 6 57
REMARK H PARENT 30 23 32 25 34 27 36 29 38 31 40 33 42 35 44 43 46 45 9 50
REMARK H PARENT 4 56 6 58
ROOT
ATOM      1  O   UNL     1       2.377  11.777 -11.497  1.00  0.00    -0.341 OA
ENDROOT
BRANCH   1   2
ATOM      2  C   UNL     1       1.739  12.140 -10.269  1.00  0.00    +0.282 C 
ATOM      3  C   UNL     1       1.636  14.565  -8.565  1.00  0.00    +0.179 C 
ATOM      4  C   UNL     1       1.331  14.491 -10.070  1.00  0.00    +0.198 C 
ATOM      5  C   UNL     1       2.171  13.207  -8.050  1.00  0.00    +0.179 C 
ATOM      6  O   UNL     1       0.808  13.217 -10.435  1.00  0.00    -0.347 OA
ATOM      7  C   UNL     1       2.811  12.398  -9.180  1.00  0.00    +0.202 C 
BRANCH   3   8
ATOM      8  O   UNL     1       2.609  15.576  -8.253  1.00  0.00    -0.341 OA
BRANCH   8   9
ATOM      9  C   UNL     1       2.619  16.687  -9.156  1.00  0.00    +0.282 C 
ATOM     10  C   UNL     1       4.212  17.959  -7.277  1.00  0.00    +0.179 C 
ATOM     11  C   UNL     1       2.992  18.686  -7.856  1.00  0.00    +0.198 C 
ATOM     12  C   UNL     1       4.968  17.221  -8.402  1.00  0.00    +0.179 C 
ATOM     13  O   UNL     1       2.056  17.841  -8.531  1.00  0.00    -0.347 OA
ATOM     14  C   UNL     1       4.067  16.951  -9.620  1.00  0.00    +0.202 C 
BRANCH  10  15
ATOM     15  O   UNL     1       5.017  18.935  -6.600  1.00  0.00    -0.341 OA
BRANCH  15  16
ATOM     16  C   UNL     1       5.619  18.450  -5.393  1.00  0.00    +0.282 C 
ATOM     17  C   UNL     1       5.887  19.044  -3.113  1.00  0.00    +0.198 C 
ATOM     18  C   UNL     1       4.813  18.086  -2.587  1.00  0.00    +0.171 C 
ATOM     19  O   UNL     1       5.560  19.502  -4.421  1.00  0.00    -0.347 OA
ATOM     20  C   UNL     1       3.943  17.537  -3.731  1.00  0.00    +0.179 C 
ATOM     21  C   UNL     1       4.820  17.200  -4.939  1.00  0.00    +0.202 C 
BRANCH  18  22
ATOM     22  O   UNL     1       5.425  16.988  -1.889  1.00  0.00    -0.388 OA
ATOM     23  H   UNL     1       5.954  17.384  -1.164  1.00  0.00    +0.211 HD
ENDBRANCH  18  22
BRANCH  20  24
ATOM     24  O   UNL     1       3.259  16.346  -3.300  1.00  0.00    -0.387 OA
ATOM     25  H   UNL     1       2.412  16.328  -3.793  1.00  0.00    +0.211 HD
ENDBRANCH  20  24
BRANCH  21  26
ATOM     26  O   UNL     1       5.720  16.138  -4.538  1.00  0.00    -0.385 OA
ATOM     27  H   UNL     1       5.653  16.124  -3.561  1.00  0.00    +0.211 HD
ENDBRANCH  21  26
ENDBRANCH  15  16
ENDBRANCH  10  15
BRANCH  12  28
ATOM     28  O   UNL     1       5.481  15.976  -7.882  1.00  0.00    -0.387 OA
ATOM     29  H   UNL     1       6.406  16.156  -7.615  1.00  0.00    +0.211 HD
ENDBRANCH  12  28
BRANCH  14  30
ATOM     30  O   UNL     1       4.603  15.856 -10.377  1.00  0.00    -0.385 OA
ATOM     31  H   UNL     1       4.537  15.058  -9.820  1.00  0.00    +0.211 HD
ENDBRANCH  14  30
ENDBRANCH   8   9
ENDBRANCH   3   8
BRANCH   5  32
ATOM     32  O   UNL     1       3.126  13.399  -6.996  1.00  0.00    -0.387 OA
ATOM     33  H   UNL     1       3.887  12.822  -7.219  1.00  0.00    +0.211 HD
ENDBRANCH   5  32
BRANCH   7  34
ATOM     34  O   UNL     1       3.934  13.136  -9.702  1.00  0.00    -0.385 OA
ATOM     35  H   UNL     1       3.830  14.045  -9.363  1.00  0.00    +0.211 HD
ENDBRANCH   7  34
ENDBRANCH   1   2
BRANCH   1  36
ATOM     36  C   UNL     1       2.353  10.373 -11.764  1.00  0.00    +0.179 C 
ATOM     37  C   UNL     1       3.769   9.800 -11.725  1.00  0.00    +0.198 C 
ATOM     38  C   UNL     1       1.734  10.121 -13.154  1.00  0.00    +0.179 C 
ATOM     39  O   UNL     1       3.793   8.378 -11.894  1.00  0.00    -0.347 OA
ATOM     40  C   UNL     1       2.331   8.880 -13.839  1.00  0.00    +0.202 C 
ATOM     41  C   UNL     1       2.785   7.859 -12.774  1.00  0.00    +0.282 C 
BRANCH  38  42
ATOM     42  O   UNL     1       1.923  11.252 -14.028  1.00  0.00    -0.387 OA
ATOM     43  H   UNL     1       2.883  11.456 -13.993  1.00  0.00    +0.211 HD
ENDBRANCH  38  42
BRANCH  40  44
ATOM     44  O   UNL     1       3.444   9.290 -14.663  1.00  0.00    -0.385 OA
ATOM     45  H   UNL     1       3.859  10.025 -14.165  1.00  0.00    +0.211 HD
ENDBRANCH  40  44
BRANCH  41  46
ATOM     46  O   UNL     1       3.271   6.687 -13.430  1.00  0.00    -0.341 OA
BRANCH  46  47
ATOM     47  C   UNL     1       4.542   6.222 -12.946  1.00  0.00    +0.178 C 
BRANCH  47  48
ATOM     48  C   UNL     1       4.285   5.128 -11.904  1.00  0.00    +0.191 C 
BRANCH  48  49
ATOM     49  O   UNL     1       4.691   5.553 -10.609  1.00  0.00    -0.394 OA
ATOM     50  H   UNL     1       5.522   6.048 -10.726  1.00  0.00    +0.210 HD
ENDBRANCH  48  49
ENDBRANCH  47  48
BRANCH  47  51
ATOM     51  C   UNL     1       5.422   5.763 -14.140  1.00  0.00    +0.181 C 
BRANCH  51  52
ATOM     52  C   UNL     1       6.189   6.895 -14.844  1.00  0.00    +0.209 C 
BRANCH  52  53
ATOM     53  C   UNL     1       5.637   7.081 -16.251  1.00  0.00    +0.258 C 
ATOM     54  O   UNL     1       4.428   7.101 -16.488  1.00  0.00    -0.300 OA
ENDBRANCH  52  53
BRANCH  52  55
ATOM     55  O   UNL     1       6.076   8.137 -14.148  1.00  0.00    -0.383 OA
ATOM     56  H   UNL     1       5.937   7.905 -13.207  1.00  0.00    +0.211 HD
ENDBRANCH  52  55
ENDBRANCH  51  52
BRANCH  51  57
ATOM     57  O   UNL     1       6.385   4.794 -13.668  1.00  0.00    -0.387 OA
ATOM     58  H   UNL     1       6.173   4.617 -12.724  1.00  0.00    +0.211 HD
ENDBRANCH  51  57
ENDBRANCH  47  51
ENDBRANCH  46  47
ENDBRANCH  41  46
ENDBRANCH   1  36
TORSDOF 24
ENDMDL
MODEL 5
REMARK VINA RESULT:    -6.668      2.273      5.755
REMARK INTER + INTRA:         -15.632
REMARK INTER:                 -13.309
REMARK INTRA:                  -2.322
REMARK UNBOUND:                -1.947
REMARK SMILES O=C[C@@H](O)[C@@H](O)[C@H](CO)O[C@H]1OC[C@@H](O[C@@H]2OC[C@H](O[C@H]3OC[C@H](O[C@H]4OC[C@H](O)[C@H](O)[C@@H]4O)[C@@H](O)[C@H]3O)[C@H](O)[C@@H]2O)[C@@H](O)[C@H]1O
REMARK SMILES IDX 15 1 16 2 19 3 18 4 39 5 17 6 41 7 20 8 21 9 24 10 23 11
REMARK SMILES IDX 35 12 22 13 37 14 25 15 26 16 28 17 29 18 27 19 31 20 33 21
REMARK SMILES IDX 30 22 32 24 34 26 36 28 38 30 40 32 42 34 14 36 13 37 43 38
REMARK SMILES IDX 12 39 45 40 11 41 44 42 46 44 10 46 7 47 8 48 9 49 5 51 3 52
REMARK SMILES IDX 2 53 1 54 4 55 6 57
REMARK H PARENT 30 23 32 25 34 27 36 29 38 31 40 33 42 35 44 43 46 45 9 50
REMARK H PARENT 4 56 6 58
ROOT
ATOM      1  O   UNL     1      -3.249   9.832 -14.873  1.00  0.00    -0.341 OA
ENDROOT
BRANCH   1   2
ATOM      2  C   UNL     1      -3.652  11.166 -15.197  1.00  0.00    +0.282 C 
ATOM      3  C   UNL     1      -5.149  13.324 -13.819  1.00  0.00    +0.179 C 
ATOM      4  C   UNL     1      -3.929  12.566 -13.274  1.00  0.00    +0.198 C 
ATOM      5  C   UNL     1      -5.620  12.707 -15.158  1.00  0.00    +0.179 C 
ATOM      6  O   UNL     1      -3.065  12.140 -14.324  1.00  0.00    -0.347 OA
ATOM      7  C   UNL     1      -5.199  11.241 -15.272  1.00  0.00    +0.202 C 
BRANCH   3   8
ATOM      8  O   UNL     1      -6.258  13.307 -12.905  1.00  0.00    -0.341 OA
BRANCH   8   9
ATOM      9  C   UNL     1      -6.676  14.602 -12.456  1.00  0.00    +0.282 C 
ATOM     10  C   UNL     1      -9.092  13.397 -11.828  1.00  0.00    +0.179 C 
ATOM     11  C   UNL     1      -9.080  14.700 -12.637  1.00  0.00    +0.198 C 
ATOM     12  C   UNL     1      -8.071  13.484 -10.675  1.00  0.00    +0.179 C 
ATOM     13  O   UNL     1      -7.812  15.044 -13.200  1.00  0.00    -0.347 OA
ATOM     14  C   UNL     1      -6.985  14.540 -10.945  1.00  0.00    +0.202 C 
BRANCH  10  15
ATOM     15  O   UNL     1     -10.438  13.179 -11.377  1.00  0.00    -0.341 OA
BRANCH  15  16
ATOM     16  C   UNL     1     -10.523  12.673 -10.039  1.00  0.00    +0.282 C 
ATOM     17  C   UNL     1     -11.752  12.991  -8.035  1.00  0.00    +0.198 C 
ATOM     18  C   UNL     1     -12.647  11.762  -8.218  1.00  0.00    +0.171 C 
ATOM     19  O   UNL     1     -11.386  13.544  -9.296  1.00  0.00    -0.347 OA
ATOM     20  C   UNL     1     -12.544  11.202  -9.648  1.00  0.00    +0.179 C 
ATOM     21  C   UNL     1     -11.088  11.230 -10.117  1.00  0.00    +0.202 C 
BRANCH  18  22
ATOM     22  O   UNL     1     -12.281  10.736  -7.281  1.00  0.00    -0.388 OA
ATOM     23  H   UNL     1     -12.410   9.881  -7.745  1.00  0.00    +0.211 HD
ENDBRANCH  18  22
BRANCH  20  24
ATOM     24  O   UNL     1     -13.022   9.844  -9.679  1.00  0.00    -0.387 OA
ATOM     25  H   UNL     1     -12.236   9.278  -9.525  1.00  0.00    +0.211 HD
ENDBRANCH  20  24
BRANCH  21  26
ATOM     26  O   UNL     1     -10.337  10.342  -9.254  1.00  0.00    -0.385 OA
ATOM     27  H   UNL     1      -9.657  10.919  -8.850  1.00  0.00    +0.211 HD
ENDBRANCH  21  26
ENDBRANCH  15  16
ENDBRANCH  10  15
BRANCH  12  28
ATOM     28  O   UNL     1      -7.464  12.187 -10.489  1.00  0.00    -0.387 OA
ATOM     29  H   UNL     1      -6.590  12.355 -10.080  1.00  0.00    +0.211 HD
ENDBRANCH  12  28
BRANCH  14  30
ATOM     30  O   UNL     1      -5.820  14.237 -10.165  1.00  0.00    -0.385 OA
ATOM     31  H   UNL     1      -5.627  15.019  -9.615  1.00  0.00    +0.211 HD
ENDBRANCH  14  30
ENDBRANCH   8   9
ENDBRANCH   3   8
BRANCH   5  32
ATOM     32  O   UNL     1      -7.046  12.809 -15.296  1.00  0.00    -0.387 OA
ATOM     33  H   UNL     1      -7.263  12.362 -16.142  1.00  0.00    +0.211 HD
ENDBRANCH   5  32
BRANCH   7  34
ATOM     34  O   UNL     1      -5.821  10.493 -14.208  1.00  0.00    -0.385 OA
ATOM     35  H   UNL     1      -5.228   9.735 -14.041  1.00  0.00    +0.211 HD
ENDBRANCH   7  34
ENDBRANCH   1   2
BRANCH   1  36
ATOM     36  C   UNL     1      -1.875   9.722 -14.500  1.00  0.00    +0.179 C 
ATOM     37  C   UNL     1      -1.027   9.314 -15.704  1.00  0.00    +0.198 C 
ATOM     38  C   UNL     1      -1.724   8.667 -13.384  1.00  0.00    +0.179 C 
ATOM     39  O   UNL     1       0.374   9.280 -15.407  1.00  0.00    -0.347 OA
ATOM     40  C   UNL     1      -0.373   7.934 -13.456  1.00  0.00    +0.202 C 
ATOM     41  C   UNL     1       0.696   8.861 -14.072  1.00  0.00    +0.282 C 
BRANCH  38  42
ATOM     42  O   UNL     1      -2.775   7.681 -13.446  1.00  0.00    -0.387 OA
ATOM     43  H   UNL     1      -2.330   6.812 -13.334  1.00  0.00    +0.211 HD
ENDBRANCH  38  42
BRANCH  40  44
ATOM     44  O   UNL     1      -0.532   6.738 -14.250  1.00  0.00    -0.385 OA
ATOM     45  H   UNL     1       0.287   6.224 -14.084  1.00  0.00    +0.211 HD
ENDBRANCH  40  44
BRANCH  41  46
ATOM     46  O   UNL     1       1.955   8.189 -14.066  1.00  0.00    -0.341 OA
BRANCH  46  47
ATOM     47  C   UNL     1       3.045   8.976 -13.558  1.00  0.00    +0.178 C 
BRANCH  47  48
ATOM     48  C   UNL     1       2.465  10.055 -12.637  1.00  0.00    +0.191 C 
BRANCH  48  49
ATOM     49  O   UNL     1       2.404   9.598 -11.292  1.00  0.00    -0.394 OA
ATOM     50  H   UNL     1       1.942  10.289 -10.784  1.00  0.00    +0.210 HD
ENDBRANCH  48  49
ENDBRANCH  47  48
BRANCH  47  51
ATOM     51  C   UNL     1       4.085   8.052 -12.871  1.00  0.00    +0.181 C 
BRANCH  51  52
ATOM     52  C   UNL     1       3.581   6.631 -12.569  1.00  0.00    +0.209 C 
BRANCH  52  53
ATOM     53  C   UNL     1       4.761   5.743 -12.196  1.00  0.00    +0.258 C 
ATOM     54  O   UNL     1       5.038   5.471 -11.027  1.00  0.00    -0.300 OA
ENDBRANCH  52  53
BRANCH  52  55
ATOM     55  O   UNL     1       2.644   6.610 -11.491  1.00  0.00    -0.383 OA
ATOM     56  H   UNL     1       2.089   5.815 -11.634  1.00  0.00    +0.211 HD
ENDBRANCH  52  55
ENDBRANCH  51  52
BRANCH  51  57
ATOM     57  O   UNL     1       5.250   7.943 -13.720  1.00  0.00    -0.387 OA
ATOM     58  H   UNL     1       5.356   8.810 -14.172  1.00  0.00    +0.211 HD
ENDBRANCH  51  57
ENDBRANCH  47  51
ENDBRANCH  46  47
ENDBRANCH  41  46
ENDBRANCH   1  36
TORSDOF 24
ENDMDL
MODEL 6
REMARK VINA RESULT:    -6.619      7.281     11.035
REMARK INTER + INTRA:         -15.531
REMARK INTER:                 -13.024
REMARK INTRA:                  -2.507
REMARK UNBOUND:                -1.947
REMARK SMILES O=C[C@@H](O)[C@@H](O)[C@H](CO)O[C@H]1OC[C@@H](O[C@@H]2OC[C@H](O[C@H]3OC[C@H](O[C@H]4OC[C@H](O)[C@H](O)[C@@H]4O)[C@@H](O)[C@H]3O)[C@H](O)[C@@H]2O)[C@@H](O)[C@H]1O
REMARK SMILES IDX 15 1 16 2 19 3 18 4 39 5 17 6 41 7 20 8 21 9 24 10 23 11
REMARK SMILES IDX 35 12 22 13 37 14 25 15 26 16 28 17 29 18 27 19 31 20 33 21
REMARK SMILES IDX 30 22 32 24 34 26 36 28 38 30 40 32 42 34 14 36 13 37 43 38
REMARK SMILES IDX 12 39 45 40 11 41 44 42 46 44 10 46 7 47 8 48 9 49 5 51 3 52
REMARK SMILES IDX 2 53 1 54 4 55 6 57
REMARK H PARENT 30 23 32 25 34 27 36 29 38 31 40 33 42 35 44 43 46 45 9 50
REMARK H PARENT 4 56 6 58
ROOT
ATOM      1  O   UNL     1      -1.052   7.910 -18.167  1.00  0.00    -0.341 OA
ENDROOT
BRANCH   1   2
ATOM      2  C   UNL     1      -0.234   6.925 -18.805  1.00  0.00    +0.282 C 
ATOM      3  C   UNL     1      -0.719   4.485 -20.420  1.00  0.00    +0.179 C 
ATOM      4  C   UNL     1      -1.291   5.887 -20.686  1.00  0.00    +0.198 C 
ATOM      5  C   UNL     1       0.047   4.456 -19.076  1.00  0.00    +0.179 C 
ATOM      6  O   UNL     1      -0.408   6.908 -20.227  1.00  0.00    -0.347 OA
ATOM      7  C   UNL     1      -0.453   5.548 -18.128  1.00  0.00    +0.202 C 
BRANCH   3   8
ATOM      8  O   UNL     1      -1.741   3.477 -20.374  1.00  0.00    -0.341 OA
BRANCH   8   9
ATOM      9  C   UNL     1      -2.943   3.818 -21.074  1.00  0.00    +0.282 C 
ATOM     10  C   UNL     1      -3.558   1.118 -20.957  1.00  0.00    +0.179 C 
ATOM     11  C   UNL     1      -3.664   1.864 -22.293  1.00  0.00    +0.198 C 
ATOM     12  C   UNL     1      -4.142   1.984 -19.822  1.00  0.00    +0.179 C 
ATOM     13  O   UNL     1      -3.003   3.132 -22.325  1.00  0.00    -0.347 OA
ATOM     14  C   UNL     1      -4.161   3.479 -20.189  1.00  0.00    +0.202 C 
BRANCH  10  15
ATOM     15  O   UNL     1      -4.228  -0.142 -21.110  1.00  0.00    -0.341 OA
BRANCH  15  16
ATOM     16  C   UNL     1      -3.517  -1.078 -21.929  1.00  0.00    +0.282 C 
ATOM     17  C   UNL     1      -1.299  -1.741 -22.449  1.00  0.00    +0.198 C 
ATOM     18  C   UNL     1      -1.317  -3.001 -21.577  1.00  0.00    +0.171 C 
ATOM     19  O   UNL     1      -2.127  -0.726 -21.889  1.00  0.00    -0.347 OA
ATOM     20  C   UNL     1      -2.523  -3.004 -20.621  1.00  0.00    +0.179 C 
ATOM     21  C   UNL     1      -3.769  -2.496 -21.350  1.00  0.00    +0.202 C 
BRANCH  18  22
ATOM     22  O   UNL     1      -1.365  -4.177 -22.403  1.00  0.00    -0.388 OA
ATOM     23  H   UNL     1      -1.006  -3.914 -23.277  1.00  0.00    +0.211 HD
ENDBRANCH  18  22
BRANCH  20  24
ATOM     24  O   UNL     1      -2.769  -4.340 -20.145  1.00  0.00    -0.387 OA
ATOM     25  H   UNL     1      -2.434  -4.941 -20.843  1.00  0.00    +0.211 HD
ENDBRANCH  20  24
BRANCH  21  26
ATOM     26  O   UNL     1      -4.063  -3.435 -22.412  1.00  0.00    -0.385 OA
ATOM     27  H   UNL     1      -3.181  -3.736 -22.716  1.00  0.00    +0.211 HD
ENDBRANCH  21  26
ENDBRANCH  15  16
ENDBRANCH  10  15
BRANCH  12  28
ATOM     28  O   UNL     1      -3.358   1.779 -18.627  1.00  0.00    -0.387 OA
ATOM     29  H   UNL     1      -2.803   0.991 -18.800  1.00  0.00    +0.211 HD
ENDBRANCH  12  28
BRANCH  14  30
ATOM     30  O   UNL     1      -4.196   4.265 -18.989  1.00  0.00    -0.385 OA
ATOM     31  H   UNL     1      -3.543   3.885 -18.373  1.00  0.00    +0.211 HD
ENDBRANCH  14  30
ENDBRANCH   8   9
ENDBRANCH   3   8
BRANCH   5  32
ATOM     32  O   UNL     1      -0.080   3.174 -18.442  1.00  0.00    -0.387 OA
ATOM     33  H   UNL     1       0.146   2.513 -19.131  1.00  0.00    +0.211 HD
ENDBRANCH   5  32
BRANCH   7  34
ATOM     34  O   UNL     1      -1.845   5.311 -17.838  1.00  0.00    -0.385 OA
ATOM     35  H   UNL     1      -1.940   4.341 -17.788  1.00  0.00    +0.211 HD
ENDBRANCH   7  34
ENDBRANCH   1   2
BRANCH   1  36
ATOM     36  C   UNL     1      -0.438   8.515 -17.027  1.00  0.00    +0.179 C 
ATOM     37  C   UNL     1       0.849   7.777 -16.662  1.00  0.00    +0.198 C 
ATOM     38  C   UNL     1      -1.412   8.473 -15.831  1.00  0.00    +0.179 C 
ATOM     39  O   UNL     1       1.554   8.399 -15.581  1.00  0.00    -0.347 OA
ATOM     40  C   UNL     1      -0.676   8.350 -14.487  1.00  0.00    +0.202 C 
ATOM     41  C   UNL     1       0.716   9.008 -14.586  1.00  0.00    +0.282 C 
BRANCH  38  42
ATOM     42  O   UNL     1      -2.335   7.370 -15.942  1.00  0.00    -0.387 OA
ATOM     43  H   UNL     1      -2.272   6.885 -15.091  1.00  0.00    +0.211 HD
ENDBRANCH  38  42
BRANCH  40  44
ATOM     44  O   UNL     1      -0.558   6.951 -14.144  1.00  0.00    -0.385 OA
ATOM     45  H   UNL     1      -1.409   6.557 -14.431  1.00  0.00    +0.211 HD
ENDBRANCH  40  44
BRANCH  41  46
ATOM     46  O   UNL     1       1.354   8.944 -13.311  1.00  0.00    -0.341 OA
BRANCH  46  47
ATOM     47  C   UNL     1       2.725   8.515 -13.355  1.00  0.00    +0.178 C 
BRANCH  47  48
ATOM     48  C   UNL     1       3.615   9.762 -13.408  1.00  0.00    +0.191 C 
BRANCH  48  49
ATOM     49  O   UNL     1       4.936   9.428 -13.812  1.00  0.00    -0.394 OA
ATOM     50  H   UNL     1       4.866   9.049 -14.707  1.00  0.00    +0.210 HD
ENDBRANCH  48  49
ENDBRANCH  47  48
BRANCH  47  51
ATOM     51  C   UNL     1       3.021   7.578 -12.153  1.00  0.00    +0.181 C 
BRANCH  51  52
ATOM     52  C   UNL     1       3.319   6.118 -12.535  1.00  0.00    +0.209 C 
BRANCH  52  53
ATOM     53  C   UNL     1       4.823   5.933 -12.689  1.00  0.00    +0.258 C 
ATOM     54  O   UNL     1       5.482   6.554 -13.525  1.00  0.00    -0.300 OA
ENDBRANCH  52  53
BRANCH  52  55
ATOM     55  O   UNL     1       2.851   5.197 -11.550  1.00  0.00    -0.383 OA
ATOM     56  H   UNL     1       1.956   5.506 -11.298  1.00  0.00    +0.211 HD
ENDBRANCH  52  55
ENDBRANCH  51  52
BRANCH  51  57
ATOM     57  O   UNL     1       4.158   8.093 -11.425  1.00  0.00    -0.387 OA
ATOM     58  H   UNL     1       4.228   9.050 -11.644  1.00  0.00    +0.211 HD
ENDBRANCH  51  57
ENDBRANCH  47  51
ENDBRANCH  46  47
ENDBRANCH  41  46
ENDBRANCH   1  36
TORSDOF 24
ENDMDL
MODEL 7
REMARK VINA RESULT:    -6.530     13.805     22.739
REMARK INTER + INTRA:         -15.348
REMARK INTER:                 -13.075
REMARK INTRA:                  -2.273
REMARK UNBOUND:                -1.947
REMARK SMILES O=C[C@@H](O)[C@@H](O)[C@H](CO)O[C@H]1OC[C@@H](O[C@@H]2OC[C@H](O[C@H]3OC[C@H](O[C@H]4OC[C@H](O)[C@H](O)[C@@H]4O)[C@@H](O)[C@H]3O)[C@H](O)[C@@H]2O)[C@@H](O)[C@H]1O
REMARK SMILES IDX 15 1 16 2 19 3 18 4 39 5 17 6 41 7 20 8 21 9 24 10 23 11
REMARK SMILES IDX 35 12 22 13 37 14 25 15 26 16 28 17 29 18 27 19 31 20 33 21
REMARK SMILES IDX 30 22 32 24 34 26 36 28 38 30 40 32 42 34 14 36 13 37 43 38
REMARK SMILES IDX 12 39 45 40 11 41 44 42 46 44 10 46 7 47 8 48 9 49 5 51 3 52
REMARK SMILES IDX 2 53 1 54 4 55 6 57
REMARK H PARENT 30 23 32 25 34 27 36 29 38 31 40 33 42 35 44 43 46 45 9 50
REMARK H PARENT 4 56 6 58
ROOT
ATOM      1  O   UNL     1       9.401 -12.384  -4.815  1.00  0.00    -0.341 OA
ENDROOT
BRANCH   1   2
ATOM      2  C   UNL     1       9.640 -11.013  -4.482  1.00  0.00    +0.282 C 
ATOM      3  C   UNL     1       8.682  -8.389  -5.477  1.00  0.00    +0.179 C 
ATOM      4  C   UNL     1       7.808  -9.571  -5.028  1.00  0.00    +0.198 C 
ATOM      5  C   UNL     1      10.176  -8.792  -5.496  1.00  0.00    +0.179 C 
ATOM      6  O   UNL     1       8.456 -10.348  -4.025  1.00  0.00    -0.347 OA
ATOM      7  C   UNL     1      10.341 -10.303  -5.668  1.00  0.00    +0.202 C 
BRANCH   3   8
ATOM      8  O   UNL     1       8.330  -7.916  -6.788  1.00  0.00    -0.341 OA
BRANCH   8   9
ATOM      9  C   UNL     1       6.973  -8.173  -7.167  1.00  0.00    +0.282 C 
ATOM     10  C   UNL     1       7.178  -5.902  -8.742  1.00  0.00    +0.179 C 
ATOM     11  C   UNL     1       5.977  -6.070  -7.804  1.00  0.00    +0.198 C 
ATOM     12  C   UNL     1       7.481  -7.236  -9.455  1.00  0.00    +0.179 C 
ATOM     13  O   UNL     1       6.137  -7.076  -6.801  1.00  0.00    -0.347 OA
ATOM     14  C   UNL     1       6.912  -8.442  -8.686  1.00  0.00    +0.202 C 
BRANCH  10  15
ATOM     15  O   UNL     1       6.873  -4.832  -9.650  1.00  0.00    -0.341 OA
BRANCH  15  16
ATOM     16  C   UNL     1       7.611  -3.631  -9.394  1.00  0.00    +0.282 C 
ATOM     17  C   UNL     1       8.470  -1.732 -10.528  1.00  0.00    +0.198 C 
ATOM     18  C   UNL     1       7.366  -0.775 -10.063  1.00  0.00    +0.171 C 
ATOM     19  O   UNL     1       7.968  -3.059 -10.660  1.00  0.00    -0.347 OA
ATOM     20  C   UNL     1       6.182  -1.543  -9.448  1.00  0.00    +0.179 C 
ATOM     21  C   UNL     1       6.699  -2.684  -8.570  1.00  0.00    +0.202 C 
BRANCH  18  22
ATOM     22  O   UNL     1       7.886   0.150  -9.093  1.00  0.00    -0.388 OA
ATOM     23  H   UNL     1       7.407  -0.032  -8.256  1.00  0.00    +0.211 HD
ENDBRANCH  18  22
BRANCH  20  24
ATOM     24  O   UNL     1       5.386  -0.653  -8.643  1.00  0.00    -0.387 OA
ATOM     25  H   UNL     1       5.929   0.153  -8.515  1.00  0.00    +0.211 HD
ENDBRANCH  20  24
BRANCH  21  26
ATOM     26  O   UNL     1       7.438  -2.089  -7.476  1.00  0.00    -0.385 OA
ATOM     27  H   UNL     1       7.533  -2.817  -6.827  1.00  0.00    +0.211 HD
ENDBRANCH  21  26
ENDBRANCH  15  16
ENDBRANCH  10  15
BRANCH  12  28
ATOM     28  O   UNL     1       8.911  -7.374  -9.602  1.00  0.00    -0.387 OA
ATOM     29  H   UNL     1       9.294  -6.516  -9.325  1.00  0.00    +0.211 HD
ENDBRANCH  12  28
BRANCH  14  30
ATOM     30  O   UNL     1       7.631  -9.627  -9.057  1.00  0.00    -0.385 OA
ATOM     31  H   UNL     1       7.405 -10.319  -8.409  1.00  0.00    +0.211 HD
ENDBRANCH  14  30
ENDBRANCH   8   9
ENDBRANCH   3   8
BRANCH   5  32
ATOM     32  O   UNL     1      10.878  -8.109  -6.546  1.00  0.00    -0.387 OA
ATOM     33  H   UNL     1      11.651  -7.685  -6.116  1.00  0.00    +0.211 HD
ENDBRANCH   5  32
BRANCH   7  34
ATOM     34  O   UNL     1       9.772 -10.692  -6.935  1.00  0.00    -0.385 OA
ATOM     35  H   UNL     1       8.827 -10.451  -6.882  1.00  0.00    +0.211 HD
ENDBRANCH   7  34
ENDBRANCH   1   2
BRANCH   1  36
ATOM     36  C   UNL     1       8.881 -13.156  -3.731  1.00  0.00    +0.179 C 
ATOM     37  C   UNL     1       9.806 -14.333  -3.424  1.00  0.00    +0.198 C 
ATOM     38  C   UNL     1       7.478 -13.685  -4.096  1.00  0.00    +0.179 C 
ATOM     39  O   UNL     1       9.379 -15.087  -2.284  1.00  0.00    -0.347 OA
ATOM     40  C   UNL     1       7.184 -15.047  -3.445  1.00  0.00    +0.202 C 
ATOM     41  C   UNL     1       7.956 -15.173  -2.115  1.00  0.00    +0.282 C 
BRANCH  38  42
ATOM     42  O   UNL     1       7.324 -13.825  -5.523  1.00  0.00    -0.387 OA
ATOM     43  H   UNL     1       8.236 -13.835  -5.889  1.00  0.00    +0.211 HD
ENDBRANCH  38  42
BRANCH  40  44
ATOM     44  O   UNL     1       7.566 -16.096  -4.361  1.00  0.00    -0.385 OA
ATOM     45  H   UNL     1       7.569 -15.663  -5.241  1.00  0.00    +0.211 HD
ENDBRANCH  40  44
BRANCH  41  46
ATOM     46  O   UNL     1       7.616 -16.412  -1.494  1.00  0.00    -0.341 OA
BRANCH  46  47
ATOM     47  C   UNL     1       6.404 -16.373  -0.722  1.00  0.00    +0.178 C 
BRANCH  47  48
ATOM     48  C   UNL     1       5.390 -17.319  -1.376  1.00  0.00    +0.191 C 
BRANCH  48  49
ATOM     49  O   UNL     1       6.041 -18.447  -1.946  1.00  0.00    -0.394 OA
ATOM     50  H   UNL     1       6.998 -18.301  -1.838  1.00  0.00    +0.210 HD
ENDBRANCH  48  49
ENDBRANCH  47  48
BRANCH  47  51
ATOM     51  C   UNL     1       6.715 -16.710   0.761  1.00  0.00    +0.181 C 
BRANCH  51  52
ATOM     52  C   UNL     1       5.649 -16.237   1.764  1.00  0.00    +0.209 C 
BRANCH  52  53
ATOM     53  C   UNL     1       4.830 -17.433   2.232  1.00  0.00    +0.258 C 
ATOM     54  O   UNL     1       3.705 -17.675   1.791  1.00  0.00    -0.300 OA
ENDBRANCH  52  53
BRANCH  52  55
ATOM     55  O   UNL     1       6.228 -15.612   2.910  1.00  0.00    -0.383 OA
ATOM     56  H   UNL     1       7.094 -15.261   2.616  1.00  0.00    +0.211 HD
ENDBRANCH  52  55
ENDBRANCH  51  52
BRANCH  51  57
ATOM     57  O   UNL     1       6.857 -18.142   0.898  1.00  0.00    -0.387 OA
ATOM     58  H   UNL     1       6.134 -18.445   1.492  1.00  0.00    +0.211 HD
ENDBRANCH  51  57
ENDBRANCH  47  51
ENDBRANCH  46  47
ENDBRANCH  41  46
ENDBRANCH   1  36
TORSDOF 24
ENDMDL
MODEL 8
REMARK VINA RESULT:    -6.359      2.978      6.143
REMARK INTER + INTRA:         -14.997
REMARK INTER:                 -12.848
REMARK INTRA:                  -2.149
REMARK UNBOUND:                -1.947
REMARK SMILES O=C[C@@H](O)[C@@H](O)[C@H](CO)O[C@H]1OC[C@@H](O[C@@H]2OC[C@H](O[C@H]3OC[C@H](O[C@H]4OC[C@H](O)[C@H](O)[C@@H]4O)[C@@H](O)[C@H]3O)[C@H](O)[C@@H]2O)[C@@H](O)[C@H]1O
REMARK SMILES IDX 15 1 16 2 19 3 18 4 39 5 17 6 41 7 20 8 21 9 24 10 23 11
REMARK SMILES IDX 35 12 22 13 37 14 25 15 26 16 28 17 29 18 27 19 31 20 33 21
REMARK SMILES IDX 30 22 32 24 34 26 36 28 38 30 40 32 42 34 14 36 13 37 43 38
REMARK SMILES IDX 12 39 45 40 11 41 44 42 46 44 10 46 7 47 8 48 9 49 5 51 3 52
REMARK SMILES IDX 2 53 1 54 4 55 6 57
REMARK H PARENT 30 23 32 25 34 27 36 29 38 31 40 33 42 35 44 43 46 45 9 50
REMARK H PARENT 4 56 6 58
ROOT
ATOM      1  O   UNL     1      -3.008   9.655 -15.230  1.00  0.00    -0.341 OA
ENDROOT
BRANCH   1   2
ATOM      2  C   UNL     1      -3.494  10.952 -15.585  1.00  0.00    +0.282 C 
ATOM      3  C   UNL     1      -5.161  13.027 -14.276  1.00  0.00    +0.179 C 
ATOM      4  C   UNL     1      -3.903  12.363 -13.694  1.00  0.00    +0.198 C 
ATOM      5  C   UNL     1      -5.563  12.355 -15.611  1.00  0.00    +0.179 C 
ATOM      6  O   UNL     1      -2.992  11.979 -14.720  1.00  0.00    -0.347 OA
ATOM      7  C   UNL     1      -5.040  10.920 -15.690  1.00  0.00    +0.202 C 
BRANCH   3   8
ATOM      8  O   UNL     1      -6.284  12.950 -13.382  1.00  0.00    -0.341 OA
BRANCH   8   9
ATOM      9  C   UNL     1      -6.137  13.714 -12.179  1.00  0.00    +0.282 C 
ATOM     10  C   UNL     1      -8.843  13.258 -11.782  1.00  0.00    +0.179 C 
ATOM     11  C   UNL     1      -8.286  14.682 -11.659  1.00  0.00    +0.198 C 
ATOM     12  C   UNL     1      -7.891  12.259 -11.094  1.00  0.00    +0.179 C 
ATOM     13  O   UNL     1      -6.981  14.865 -12.215  1.00  0.00    -0.347 OA
ATOM     14  C   UNL     1      -6.463  12.818 -10.965  1.00  0.00    +0.202 C 
BRANCH  10  15
ATOM     15  O   UNL     1     -10.164  13.260 -11.221  1.00  0.00    -0.341 OA
BRANCH  15  16
ATOM     16  C   UNL     1     -10.240  12.659  -9.923  1.00  0.00    +0.282 C 
ATOM     17  C   UNL     1     -11.367  12.910  -7.851  1.00  0.00    +0.198 C 
ATOM     18  C   UNL     1     -12.361  11.767  -8.089  1.00  0.00    +0.171 C 
ATOM     19  O   UNL     1     -11.006  13.531  -9.081  1.00  0.00    -0.347 OA
ATOM     20  C   UNL     1     -12.353  11.315  -9.559  1.00  0.00    +0.179 C 
ATOM     21  C   UNL     1     -10.916  11.272 -10.085  1.00  0.00    +0.202 C 
BRANCH  18  22
ATOM     22  O   UNL     1     -12.042  10.647  -7.247  1.00  0.00    -0.388 OA
ATOM     23  H   UNL     1     -11.108  10.415  -7.440  1.00  0.00    +0.211 HD
ENDBRANCH  18  22
BRANCH  20  24
ATOM     24  O   UNL     1     -12.934  10.003  -9.672  1.00  0.00    -0.387 OA
ATOM     25  H   UNL     1     -13.505   9.891  -8.883  1.00  0.00    +0.211 HD
ENDBRANCH  20  24
BRANCH  21  26
ATOM     26  O   UNL     1     -10.206  10.266  -9.323  1.00  0.00    -0.385 OA
ATOM     27  H   UNL     1      -9.267  10.539  -9.384  1.00  0.00    +0.211 HD
ENDBRANCH  21  26
ENDBRANCH  15  16
ENDBRANCH  10  15
BRANCH  12  28
ATOM     28  O   UNL     1      -7.873  11.031 -11.853  1.00  0.00    -0.387 OA
ATOM     29  H   UNL     1      -7.028  10.589 -11.631  1.00  0.00    +0.211 HD
ENDBRANCH  12  28
BRANCH  14  30
ATOM     30  O   UNL     1      -5.535  11.732 -10.828  1.00  0.00    -0.385 OA
ATOM     31  H   UNL     1      -5.750  11.077 -11.518  1.00  0.00    +0.211 HD
ENDBRANCH  14  30
ENDBRANCH   8   9
ENDBRANCH   3   8
BRANCH   5  32
ATOM     32  O   UNL     1      -6.988  12.358 -15.777  1.00  0.00    -0.387 OA
ATOM     33  H   UNL     1      -7.355  12.672 -14.923  1.00  0.00    +0.211 HD
ENDBRANCH   5  32
BRANCH   7  34
ATOM     34  O   UNL     1      -5.631  10.150 -14.624  1.00  0.00    -0.385 OA
ATOM     35  H   UNL     1      -5.654  10.747 -13.852  1.00  0.00    +0.211 HD
ENDBRANCH   7  34
ENDBRANCH   1   2
BRANCH   1  36
ATOM     36  C   UNL     1      -1.723   9.674 -14.605  1.00  0.00    +0.179 C 
ATOM     37  C   UNL     1      -0.622   9.476 -15.646  1.00  0.00    +0.198 C 
ATOM     38  C   UNL     1      -1.642   8.550 -13.551  1.00  0.00    +0.179 C 
ATOM     39  O   UNL     1       0.692   9.579 -15.086  1.00  0.00    -0.347 OA
ATOM     40  C   UNL     1      -0.217   7.990 -13.407  1.00  0.00    +0.202 C 
ATOM     41  C   UNL     1       0.816   9.087 -13.744  1.00  0.00    +0.282 C 
BRANCH  38  42
ATOM     42  O   UNL     1      -2.525   7.457 -13.878  1.00  0.00    -0.387 OA
ATOM     43  H   UNL     1      -2.490   7.372 -14.856  1.00  0.00    +0.211 HD
ENDBRANCH  38  42
BRANCH  40  44
ATOM     44  O   UNL     1      -0.068   6.858 -14.291  1.00  0.00    -0.385 OA
ATOM     45  H   UNL     1       0.547   7.170 -14.988  1.00  0.00    +0.211 HD
ENDBRANCH  40  44
BRANCH  41  46
ATOM     46  O   UNL     1       2.130   8.568 -13.537  1.00  0.00    -0.341 OA
BRANCH  46  47
ATOM     47  C   UNL     1       2.473   8.357 -12.158  1.00  0.00    +0.178 C 
BRANCH  47  48
ATOM     48  C   UNL     1       3.316   7.080 -12.065  1.00  0.00    +0.191 C 
BRANCH  48  49
ATOM     49  O   UNL     1       2.640   6.076 -11.319  1.00  0.00    -0.394 OA
ATOM     50  H   UNL     1       1.779   5.937 -11.754  1.00  0.00    +0.210 HD
ENDBRANCH  48  49
ENDBRANCH  47  48
BRANCH  47  51
ATOM     51  C   UNL     1       3.176   9.620 -11.592  1.00  0.00    +0.181 C 
BRANCH  51  52
ATOM     52  C   UNL     1       3.784  10.547 -12.657  1.00  0.00    +0.209 C 
BRANCH  52  53
ATOM     53  C   UNL     1       4.442  11.739 -11.974  1.00  0.00    +0.258 C 
ATOM     54  O   UNL     1       4.840  11.694 -10.809  1.00  0.00    -0.300 OA
ENDBRANCH  52  53
BRANCH  52  55
ATOM     55  O   UNL     1       4.769   9.884 -13.450  1.00  0.00    -0.383 OA
ATOM     56  H   UNL     1       5.612  10.351 -13.277  1.00  0.00    +0.211 HD
ENDBRANCH  52  55
ENDBRANCH  51  52
BRANCH  51  57
ATOM     57  O   UNL     1       2.220  10.385 -10.823  1.00  0.00    -0.387 OA
ATOM     58  H   UNL     1       1.407  10.459 -11.371  1.00  0.00    +0.211 HD
ENDBRANCH  51  57
ENDBRANCH  47  51
ENDBRANCH  46  47
ENDBRANCH  41  46
ENDBRANCH   1  36
TORSDOF 24
ENDMDL
MODEL 9
REMARK VINA RESULT:    -6.340     16.816     24.704
REMARK INTER + INTRA:         -14.958
REMARK INTER:                 -12.019
REMARK INTRA:                  -2.939
REMARK UNBOUND:                -1.947
REMARK SMILES O=C[C@@H](O)[C@@H](O)[C@H](CO)O[C@H]1OC[C@@H](O[C@@H]2OC[C@H](O[C@H]3OC[C@H](O[C@H]4OC[C@H](O)[C@H](O)[C@@H]4O)[C@@H](O)[C@H]3O)[C@H](O)[C@@H]2O)[C@@H](O)[C@H]1O
REMARK SMILES IDX 15 1 16 2 19 3 18 4 39 5 17 6 41 7 20 8 21 9 24 10 23 11
REMARK SMILES IDX 35 12 22 13 37 14 25 15 26 16 28 17 29 18 27 19 31 20 33 21
REMARK SMILES IDX 30 22 32 24 34 26 36 28 38 30 40 32 42 34 14 36 13 37 43 38
REMARK SMILES IDX 12 39 45 40 11 41 44 42 46 44 10 46 7 47 8 48 9 49 5 51 3 52
REMARK SMILES IDX 2 53 1 54 4 55 6 57
REMARK H PARENT 30 23 32 25 34 27 36 29 38 31 40 33 42 35 44 43 46 45 9 50
REMARK H PARENT 4 56 6 58
ROOT
ATOM      1  O   UNL     1      19.365   5.378  -4.100  1.00  0.00    -0.341 OA
ENDROOT
BRANCH   1   2
ATOM      2  C   UNL     1      19.814   5.397  -2.742  1.00  0.00    +0.282 C 
ATOM      3  C   UNL     1      20.730   3.370  -0.780  1.00  0.00    +0.179 C 
ATOM      4  C   UNL     1      21.277   3.581  -2.201  1.00  0.00    +0.198 C 
ATOM      5  C   UNL     1      19.496   4.270  -0.533  1.00  0.00    +0.179 C 
ATOM      6  O   UNL     1      21.166   4.942  -2.608  1.00  0.00    -0.347 OA
ATOM      7  C   UNL     1      18.803   4.635  -1.846  1.00  0.00    +0.202 C 
BRANCH   3   8
ATOM      8  O   UNL     1      20.344   2.007  -0.539  1.00  0.00    -0.341 OA
BRANCH   8   9
ATOM      9  C   UNL     1      21.439   1.112  -0.310  1.00  0.00    +0.282 C 
ATOM     10  C   UNL     1      20.003   0.214   1.885  1.00  0.00    +0.179 C 
ATOM     11  C   UNL     1      21.480   0.591   2.046  1.00  0.00    +0.198 C 
ATOM     12  C   UNL     1      19.803  -0.590   0.583  1.00  0.00    +0.179 C 
ATOM     13  O   UNL     1      22.024   1.359   0.969  1.00  0.00    -0.347 OA
ATOM     14  C   UNL     1      20.939  -0.343  -0.426  1.00  0.00    +0.202 C 
BRANCH  10  15
ATOM     15  O   UNL     1      19.608  -0.507   3.062  1.00  0.00    -0.341 OA
BRANCH  15  16
ATOM     16  C   UNL     1      18.586   0.148   3.823  1.00  0.00    +0.282 C 
ATOM     17  C   UNL     1      18.264   1.226   5.912  1.00  0.00    +0.198 C 
ATOM     18  C   UNL     1      18.313   2.650   5.348  1.00  0.00    +0.171 C 
ATOM     19  O   UNL     1      19.091   0.351   5.150  1.00  0.00    -0.347 OA
ATOM     20  C   UNL     1      18.850   2.663   3.906  1.00  0.00    +0.179 C 
ATOM     21  C   UNL     1      18.261   1.491   3.118  1.00  0.00    +0.202 C 
BRANCH  18  22
ATOM     22  O   UNL     1      17.002   3.239   5.371  1.00  0.00    -0.388 OA
ATOM     23  H   UNL     1      16.834   3.571   4.463  1.00  0.00    +0.211 HD
ENDBRANCH  18  22
BRANCH  20  24
ATOM     24  O   UNL     1      18.485   3.896   3.258  1.00  0.00    -0.387 OA
ATOM     25  H   UNL     1      19.302   4.438   3.229  1.00  0.00    +0.211 HD
ENDBRANCH  20  24
BRANCH  21  26
ATOM     26  O   UNL     1      16.829   1.695   3.044  1.00  0.00    -0.385 OA
ATOM     27  H   UNL     1      16.656   1.825   2.088  1.00  0.00    +0.211 HD
ENDBRANCH  21  26
ENDBRANCH  15  16
ENDBRANCH  10  15
BRANCH  12  28
ATOM     28  O   UNL     1      18.535  -0.226  -0.002  1.00  0.00    -0.387 OA
ATOM     29  H   UNL     1      18.655  -0.297  -0.971  1.00  0.00    +0.211 HD
ENDBRANCH  12  28
BRANCH  14  30
ATOM     30  O   UNL     1      20.478  -0.655  -1.749  1.00  0.00    -0.385 OA
ATOM     31  H   UNL     1      20.854   0.012  -2.353  1.00  0.00    +0.211 HD
ENDBRANCH  14  30
ENDBRANCH   8   9
ENDBRANCH   3   8
BRANCH   5  32
ATOM     32  O   UNL     1      18.558   3.625   0.342  1.00  0.00    -0.387 OA
ATOM     33  H   UNL     1      19.047   2.879   0.752  1.00  0.00    +0.211 HD
ENDBRANCH   5  32
BRANCH   7  34
ATOM     34  O   UNL     1      18.337   3.426  -2.479  1.00  0.00    -0.385 OA
ATOM     35  H   UNL     1      18.814   2.699  -2.035  1.00  0.00    +0.211 HD
ENDBRANCH   7  34
ENDBRANCH   1   2
BRANCH   1  36
ATOM     36  C   UNL     1      19.175   6.679  -4.660  1.00  0.00    +0.179 C 
ATOM     37  C   UNL     1      17.689   6.940  -4.905  1.00  0.00    +0.198 C 
ATOM     38  C   UNL     1      19.943   6.786  -5.994  1.00  0.00    +0.179 C 
ATOM     39  O   UNL     1      17.434   8.268  -5.380  1.00  0.00    -0.347 OA
ATOM     40  C   UNL     1      19.243   7.722  -6.993  1.00  0.00    +0.202 C 
ATOM     41  C   UNL     1      18.454   8.809  -6.233  1.00  0.00    +0.282 C 
BRANCH  38  42
ATOM     42  O   UNL     1      20.097   5.494  -6.618  1.00  0.00    -0.387 OA
ATOM     43  H   UNL     1      19.425   4.915  -6.197  1.00  0.00    +0.211 HD
ENDBRANCH  38  42
BRANCH  40  44
ATOM     44  O   UNL     1      18.362   6.939  -7.828  1.00  0.00    -0.385 OA
ATOM     45  H   UNL     1      18.832   6.088  -7.950  1.00  0.00    +0.211 HD
ENDBRANCH  40  44
BRANCH  41  46
ATOM     46  O   UNL     1      17.870   9.706  -7.177  1.00  0.00    -0.341 OA
BRANCH  46  47
ATOM     47  C   UNL     1      16.465   9.939  -6.982  1.00  0.00    +0.178 C 
BRANCH  47  48
ATOM     48  C   UNL     1      16.305  11.139  -6.043  1.00  0.00    +0.191 C 
BRANCH  48  49
ATOM     49  O   UNL     1      15.957  10.716  -4.731  1.00  0.00    -0.394 OA
ATOM     50  H   UNL     1      15.027  10.428  -4.769  1.00  0.00    +0.210 HD
ENDBRANCH  48  49
ENDBRANCH  47  48
BRANCH  47  51
ATOM     51  C   UNL     1      15.767  10.116  -8.357  1.00  0.00    +0.181 C 
BRANCH  51  52
ATOM     52  C   UNL     1      15.891   8.908  -9.301  1.00  0.00    +0.209 C 
BRANCH  52  53
ATOM     53  C   UNL     1      14.889   9.050 -10.439  1.00  0.00    +0.258 C 
ATOM     54  O   UNL     1      14.788  10.083 -11.103  1.00  0.00    -0.300 OA
ENDBRANCH  52  53
BRANCH  52  55
ATOM     55  O   UNL     1      17.199   8.797  -9.864  1.00  0.00    -0.383 OA
ATOM     56  H   UNL     1      17.653   8.096  -9.351  1.00  0.00    +0.211 HD
ENDBRANCH  52  55
ENDBRANCH  51  52
BRANCH  51  57
ATOM     57  O   UNL     1      14.361  10.373  -8.140  1.00  0.00    -0.387 OA
ATOM     58  H   UNL     1      13.867   9.634  -8.560  1.00  0.00    +0.211 HD
ENDBRANCH  51  57
ENDBRANCH  47  51
ENDBRANCH  46  47
ENDBRANCH  41  46
ENDBRANCH   1  36
TORSDOF 24
ENDMDL
