MODEL 1
REMARK VINA RESULT:    -6.676      0.000      0.000
REMARK INTER + INTRA:         -11.647
REMARK INTER:                  -9.799
REMARK INTRA:                  -1.848
REMARK UNBOUND:                -1.848
REMARK SMILES O=S(=O)(O)OC[C@@H]1O[C@H](O[C@H]2[C@@H]3OC[C@H]2O[C@@H](O)[C@H]3O)[C@@H](O)[C@H](O)[C@@H]1O
REMARK SMILES IDX 9 1 21 2 23 3 25 4 7 5 8 6 10 7 11 8 14 9 15 10 13 11 16 12
REMARK SMILES IDX 12 13 17 14 19 15 18 16 20 18 22 20 24 22 6 24 5 25 2 26
REMARK SMILES IDX 1 27 3 28 4 29 26 31
REMARK H PARENT 18 17 20 19 22 21 24 23 4 30 26 32
ROOT
ATOM      1  C   UNL     1       4.047   8.510  -6.624  1.00  0.00    +0.282 C 
ATOM      2  C   UNL     1       3.401   9.892  -6.839  1.00  0.00    +0.202 C 
ATOM      3  C   UNL     1       4.469  10.953  -6.636  1.00  0.00    +0.179 C 
ATOM      4  C   UNL     1       5.542  10.803  -7.719  1.00  0.00    +0.177 C 
ATOM      5  C   UNL     1       5.827   9.327  -8.085  1.00  0.00    +0.180 C 
ATOM      6  O   UNL     1       5.404   8.415  -7.054  1.00  0.00    -0.341 OA
ENDROOT
BRANCH   1   7
ATOM      7  O   UNL     1       3.196   7.531  -7.225  1.00  0.00    -0.341 OA
BRANCH   7   8
ATOM      8  C   UNL     1       2.453   6.779  -6.271  1.00  0.00    +0.184 C 
ATOM      9  C   UNL     1       1.636   4.767  -5.389  1.00  0.00    +0.195 C 
ATOM     10  C   UNL     1       2.814   5.303  -6.204  1.00  0.00    +0.179 C 
ATOM     11  O   UNL     1       0.496   5.588  -5.753  1.00  0.00    -0.370 OA
ATOM     12  O   UNL     1       2.892   4.744  -7.527  1.00  0.00    -0.342 OA
ATOM     13  C   UNL     1       0.991   6.602  -6.665  1.00  0.00    +0.184 C 
ATOM     14  C   UNL     1       1.705   4.808  -8.310  1.00  0.00    +0.279 C 
ATOM     15  C   UNL     1       0.890   6.106  -8.114  1.00  0.00    +0.202 C 
BRANCH  14  16
ATOM     16  O   UNL     1       0.901   3.668  -8.017  1.00  0.00    -0.366 OA
ATOM     17  H   UNL     1       0.618   3.800  -7.094  1.00  0.00    +0.213 HD
ENDBRANCH  14  16
BRANCH  15  18
ATOM     18  O   UNL     1      -0.483   5.906  -8.476  1.00  0.00    -0.385 OA
ATOM     19  H   UNL     1      -0.544   4.942  -8.648  1.00  0.00    +0.211 HD
ENDBRANCH  15  18
ENDBRANCH   7   8
ENDBRANCH   1   7
BRANCH   2  20
ATOM     20  O   UNL     1       2.327  10.120  -5.910  1.00  0.00    -0.385 OA
ATOM     21  H   UNL     1       1.911  10.963  -6.179  1.00  0.00    +0.211 HD
ENDBRANCH   2  20
BRANCH   3  22
ATOM     22  O   UNL     1       3.894  12.267  -6.718  1.00  0.00    -0.387 OA
ATOM     23  H   UNL     1       4.661  12.878  -6.700  1.00  0.00    +0.211 HD
ENDBRANCH   3  22
BRANCH   5  24
ATOM     24  C   UNL     1       5.330   8.892  -9.475  1.00  0.00    +0.220 C 
BRANCH  24  25
ATOM     25  O   UNL     1       6.079   7.751  -9.888  1.00  0.00    -0.245 OA
BRANCH  25  26
ATOM     26  S   UNL     1       5.291   6.341 -10.038  1.00  0.00    +0.397 S 
ATOM     27  O   UNL     1       6.067   5.425 -10.843  1.00  0.00    -0.169 OA
ATOM     28  O   UNL     1       3.902   6.625 -10.319  1.00  0.00    -0.169 OA
BRANCH  26  29
ATOM     29  O   UNL     1       5.299   5.790  -8.526  1.00  0.00    -0.264 OA
ATOM     30  H   UNL     1       6.237   5.709  -8.257  1.00  0.00    +0.236 HD
ENDBRANCH  26  29
ENDBRANCH  25  26
ENDBRANCH  24  25
ENDBRANCH   5  24
BRANCH   4  31
ATOM     31  O   UNL     1       5.156  11.563  -8.870  1.00  0.00    -0.387 OA
ATOM     32  H   UNL     1       5.620  11.132  -9.622  1.00  0.00    +0.211 HD
ENDBRANCH   4  31
TORSDOF 11
ENDMDL
MODEL 2
REMARK VINA RESULT:    -6.488      1.368      2.157
REMARK INTER + INTRA:         -11.370
REMARK INTER:                 -10.117
REMARK INTRA:                  -1.253
REMARK UNBOUND:                -1.848
REMARK SMILES O=S(=O)(O)OC[C@@H]1O[C@H](O[C@H]2[C@@H]3OC[C@H]2O[C@@H](O)[C@H]3O)[C@@H](O)[C@H](O)[C@@H]1O
REMARK SMILES IDX 9 1 21 2 23 3 25 4 7 5 8 6 10 7 11 8 14 9 15 10 13 11 16 12
REMARK SMILES IDX 12 13 17 14 19 15 18 16 20 18 22 20 24 22 6 24 5 25 2 26
REMARK SMILES IDX 1 27 3 28 4 29 26 31
REMARK H PARENT 18 17 20 19 22 21 24 23 4 30 26 32
ROOT
ATOM      1  C   UNL     1       3.360   8.349  -6.030  1.00  0.00    +0.282 C 
ATOM      2  C   UNL     1       3.169   9.834  -6.396  1.00  0.00    +0.202 C 
ATOM      3  C   UNL     1       4.499  10.544  -6.203  1.00  0.00    +0.179 C 
ATOM      4  C   UNL     1       5.521   9.981  -7.195  1.00  0.00    +0.177 C 
ATOM      5  C   UNL     1       5.363   8.459  -7.425  1.00  0.00    +0.180 C 
ATOM      6  O   UNL     1       4.641   7.815  -6.358  1.00  0.00    -0.341 OA
ENDROOT
BRANCH   1   7
ATOM      7  O   UNL     1       2.279   7.614  -6.611  1.00  0.00    -0.341 OA
BRANCH   7   8
ATOM      8  C   UNL     1       2.590   6.239  -6.816  1.00  0.00    +0.184 C 
ATOM      9  C   UNL     1       2.275   4.171  -7.873  1.00  0.00    +0.195 C 
ATOM     10  C   UNL     1       2.103   5.667  -8.138  1.00  0.00    +0.179 C 
ATOM     11  O   UNL     1       2.023   3.988  -6.456  1.00  0.00    -0.370 OA
ATOM     12  O   UNL     1       0.737   6.050  -8.379  1.00  0.00    -0.342 OA
ATOM     13  C   UNL     1       1.799   5.311  -5.902  1.00  0.00    +0.184 C 
ATOM     14  C   UNL     1      -0.216   5.627  -7.410  1.00  0.00    +0.279 C 
ATOM     15  C   UNL     1       0.305   5.661  -5.956  1.00  0.00    +0.202 C 
BRANCH  14  16
ATOM     16  O   UNL     1      -0.660   4.315  -7.748  1.00  0.00    -0.366 OA
ATOM     17  H   UNL     1      -0.229   4.123  -8.599  1.00  0.00    +0.213 HD
ENDBRANCH  14  16
BRANCH  15  18
ATOM     18  O   UNL     1      -0.446   4.767  -5.124  1.00  0.00    -0.385 OA
ATOM     19  H   UNL     1      -0.133   4.968  -4.216  1.00  0.00    +0.211 HD
ENDBRANCH  15  18
ENDBRANCH   7   8
ENDBRANCH   1   7
BRANCH   2  20
ATOM     20  O   UNL     1       2.176  10.457  -5.563  1.00  0.00    -0.385 OA
ATOM     21  H   UNL     1       2.661  11.074  -4.980  1.00  0.00    +0.211 HD
ENDBRANCH   2  20
BRANCH   3  22
ATOM     22  O   UNL     1       4.350  11.956  -6.427  1.00  0.00    -0.387 OA
ATOM     23  H   UNL     1       3.797  12.025  -7.233  1.00  0.00    +0.211 HD
ENDBRANCH   3  22
BRANCH   5  24
ATOM     24  C   UNL     1       4.816   8.062  -8.808  1.00  0.00    +0.220 C 
BRANCH  24  25
ATOM     25  O   UNL     1       5.904   7.619  -9.615  1.00  0.00    -0.245 OA
BRANCH  25  26
ATOM     26  S   UNL     1       6.361   8.563 -10.855  1.00  0.00    +0.397 S 
ATOM     27  O   UNL     1       5.280   9.449 -11.225  1.00  0.00    -0.169 OA
ATOM     28  O   UNL     1       7.047   7.739 -11.824  1.00  0.00    -0.169 OA
BRANCH  26  29
ATOM     29  O   UNL     1       7.519   9.458 -10.184  1.00  0.00    -0.264 OA
ATOM     30  H   UNL     1       7.196  10.382 -10.177  1.00  0.00    +0.236 HD
ENDBRANCH  26  29
ENDBRANCH  25  26
ENDBRANCH  24  25
ENDBRANCH   5  24
BRANCH   4  31
ATOM     31  O   UNL     1       5.430  10.709  -8.425  1.00  0.00    -0.387 OA
ATOM     32  H   UNL     1       4.537  10.495  -8.778  1.00  0.00    +0.211 HD
ENDBRANCH   4  31
TORSDOF 11
ENDMDL
MODEL 3
REMARK VINA RESULT:    -5.960      1.936      4.243
REMARK INTER + INTRA:         -10.596
REMARK INTER:                  -9.587
REMARK INTRA:                  -1.009
REMARK UNBOUND:                -1.848
REMARK SMILES O=S(=O)(O)OC[C@@H]1O[C@H](O[C@H]2[C@@H]3OC[C@H]2O[C@@H](O)[C@H]3O)[C@@H](O)[C@H](O)[C@@H]1O
REMARK SMILES IDX 9 1 21 2 23 3 25 4 7 5 8 6 10 7 11 8 14 9 15 10 13 11 16 12
REMARK SMILES IDX 12 13 17 14 19 15 18 16 20 18 22 20 24 22 6 24 5 25 2 26
REMARK SMILES IDX 1 27 3 28 4 29 26 31
REMARK H PARENT 18 17 20 19 22 21 24 23 4 30 26 32
ROOT
ATOM      1  C   UNL     1       4.279   7.255  -9.439  1.00  0.00    +0.282 C 
ATOM      2  C   UNL     1       5.800   7.190  -9.677  1.00  0.00    +0.202 C 
ATOM      3  C   UNL     1       6.154   8.199 -10.757  1.00  0.00    +0.179 C 
ATOM      4  C   UNL     1       5.856   9.612 -10.246  1.00  0.00    +0.177 C 
ATOM      5  C   UNL     1       4.586   9.678  -9.364  1.00  0.00    +0.180 C 
ATOM      6  O   UNL     1       3.710   8.555  -9.579  1.00  0.00    -0.341 OA
ENDROOT
BRANCH   1   7
ATOM      7  O   UNL     1       4.010   6.658  -8.167  1.00  0.00    -0.341 OA
BRANCH   7   8
ATOM      8  C   UNL     1       2.759   7.060  -7.619  1.00  0.00    +0.184 C 
ATOM      9  C   UNL     1       1.151   7.096  -5.914  1.00  0.00    +0.195 C 
ATOM     10  C   UNL     1       2.660   6.941  -6.106  1.00  0.00    +0.179 C 
ATOM     11  O   UNL     1       0.540   6.503  -7.089  1.00  0.00    -0.370 OA
ATOM     12  O   UNL     1       3.163   5.666  -5.668  1.00  0.00    -0.342 OA
ATOM     13  C   UNL     1       1.626   6.099  -7.962  1.00  0.00    +0.184 C 
ATOM     14  C   UNL     1       2.498   4.516  -6.182  1.00  0.00    +0.279 C 
ATOM     15  C   UNL     1       2.044   4.655  -7.652  1.00  0.00    +0.202 C 
BRANCH  14  16
ATOM     16  O   UNL     1       1.384   4.219  -5.344  1.00  0.00    -0.366 OA
ATOM     17  H   UNL     1       0.697   4.853  -5.618  1.00  0.00    +0.213 HD
ENDBRANCH  14  16
BRANCH  15  18
ATOM     18  O   UNL     1       0.969   3.753  -7.941  1.00  0.00    -0.385 OA
ATOM     19  H   UNL     1       1.192   2.947  -7.427  1.00  0.00    +0.211 HD
ENDBRANCH  15  18
ENDBRANCH   7   8
ENDBRANCH   1   7
BRANCH   2  20
ATOM     20  O   UNL     1       6.210   5.880 -10.103  1.00  0.00    -0.385 OA
ATOM     21  H   UNL     1       5.621   5.250  -9.644  1.00  0.00    +0.211 HD
ENDBRANCH   2  20
BRANCH   3  22
ATOM     22  O   UNL     1       7.548   8.103 -11.095  1.00  0.00    -0.387 OA
ATOM     23  H   UNL     1       7.996   7.884 -10.251  1.00  0.00    +0.211 HD
ENDBRANCH   3  22
BRANCH   5  24
ATOM     24  C   UNL     1       4.844   9.925  -7.867  1.00  0.00    +0.220 C 
BRANCH  24  25
ATOM     25  O   UNL     1       4.664  11.314  -7.600  1.00  0.00    -0.245 OA
BRANCH  25  26
ATOM     26  S   UNL     1       3.362  11.758  -6.738  1.00  0.00    +0.397 S 
ATOM     27  O   UNL     1       3.521  13.115  -6.266  1.00  0.00    -0.169 OA
ATOM     28  O   UNL     1       3.013  10.670  -5.852  1.00  0.00    -0.169 OA
BRANCH  26  29
ATOM     29  O   UNL     1       2.206  11.761  -7.857  1.00  0.00    -0.264 OA
ATOM     30  H   UNL     1       2.420  12.481  -8.486  1.00  0.00    +0.236 HD
ENDBRANCH  26  29
ENDBRANCH  25  26
ENDBRANCH  24  25
ENDBRANCH   5  24
BRANCH   4  31
ATOM     31  O   UNL     1       7.003  10.111  -9.551  1.00  0.00    -0.387 OA
ATOM     32  H   UNL     1       7.071   9.553  -8.744  1.00  0.00    +0.211 HD
ENDBRANCH   4  31
TORSDOF 11
ENDMDL
MODEL 4
REMARK VINA RESULT:    -5.804      6.822     10.206
REMARK INTER + INTRA:         -10.367
REMARK INTER:                  -9.364
REMARK INTRA:                  -1.003
REMARK UNBOUND:                -1.848
REMARK SMILES O=S(=O)(O)OC[C@@H]1O[C@H](O[C@H]2[C@@H]3OC[C@H]2O[C@@H](O)[C@H]3O)[C@@H](O)[C@H](O)[C@@H]1O
REMARK SMILES IDX 9 1 21 2 23 3 25 4 7 5 8 6 10 7 11 8 14 9 15 10 13 11 16 12
REMARK SMILES IDX 12 13 17 14 19 15 18 16 20 18 22 20 24 22 6 24 5 25 2 26
REMARK SMILES IDX 1 27 3 28 4 29 26 31
REMARK H PARENT 18 17 20 19 22 21 24 23 4 30 26 32
ROOT
ATOM      1  C   UNL     1      -3.735   6.702  -7.788  1.00  0.00    +0.282 C 
ATOM      2  C   UNL     1      -2.694   5.572  -7.668  1.00  0.00    +0.202 C 
ATOM      3  C   UNL     1      -1.981   5.724  -6.335  1.00  0.00    +0.179 C 
ATOM      4  C   UNL     1      -2.983   5.512  -5.197  1.00  0.00    +0.177 C 
ATOM      5  C   UNL     1      -4.384   6.087  -5.514  1.00  0.00    +0.180 C 
ATOM      6  O   UNL     1      -4.347   7.081  -6.556  1.00  0.00    -0.341 OA
ENDROOT
BRANCH   1   7
ATOM      7  O   UNL     1      -4.680   6.323  -8.792  1.00  0.00    -0.341 OA
BRANCH   7   8
ATOM      8  C   UNL     1      -4.636   7.161  -9.941  1.00  0.00    +0.184 C 
ATOM      9  C   UNL     1      -5.603   8.144 -11.837  1.00  0.00    +0.195 C 
ATOM     10  C   UNL     1      -5.997   7.594 -10.465  1.00  0.00    +0.179 C 
ATOM     11  O   UNL     1      -4.479   7.341 -12.278  1.00  0.00    -0.370 OA
ATOM     12  O   UNL     1      -6.889   6.468 -10.537  1.00  0.00    -0.342 OA
ATOM     13  C   UNL     1      -4.173   6.426 -11.194  1.00  0.00    +0.184 C 
ATOM     14  C   UNL     1      -6.483   5.395 -11.380  1.00  0.00    +0.279 C 
ATOM     15  C   UNL     1      -4.962   5.121 -11.364  1.00  0.00    +0.202 C 
BRANCH  14  16
ATOM     16  O   UNL     1      -6.924   5.665 -12.709  1.00  0.00    -0.366 OA
ATOM     17  H   UNL     1      -7.084   6.625 -12.722  1.00  0.00    +0.213 HD
ENDBRANCH  14  16
BRANCH  15  18
ATOM     18  O   UNL     1      -4.553   4.444 -12.560  1.00  0.00    -0.385 OA
ATOM     19  H   UNL     1      -4.416   3.516 -12.271  1.00  0.00    +0.211 HD
ENDBRANCH  15  18
ENDBRANCH   7   8
ENDBRANCH   1   7
BRANCH   2  20
ATOM     20  O   UNL     1      -1.728   5.633  -8.731  1.00  0.00    -0.385 OA
ATOM     21  H   UNL     1      -2.009   6.368  -9.310  1.00  0.00    +0.211 HD
ENDBRANCH   2  20
BRANCH   3  22
ATOM     22  O   UNL     1      -0.923   4.758  -6.220  1.00  0.00    -0.387 OA
ATOM     23  H   UNL     1      -1.227   4.134  -5.527  1.00  0.00    +0.211 HD
ENDBRANCH   3  22
BRANCH   5  24
ATOM     24  C   UNL     1      -5.480   5.035  -5.764  1.00  0.00    +0.220 C 
BRANCH  24  25
ATOM     25  O   UNL     1      -6.031   4.647  -4.508  1.00  0.00    -0.245 OA
BRANCH  25  26
ATOM     26  S   UNL     1      -7.212   3.534  -4.510  1.00  0.00    +0.397 S 
ATOM     27  O   UNL     1      -6.641   2.209  -4.591  1.00  0.00    -0.169 OA
ATOM     28  O   UNL     1      -8.255   3.980  -5.406  1.00  0.00    -0.169 OA
BRANCH  26  29
ATOM     29  O   UNL     1      -7.837   3.707  -3.036  1.00  0.00    -0.264 OA
ATOM     30  H   UNL     1      -7.814   4.663  -2.828  1.00  0.00    +0.236 HD
ENDBRANCH  26  29
ENDBRANCH  25  26
ENDBRANCH  24  25
ENDBRANCH   5  24
BRANCH   4  31
ATOM     31  O   UNL     1      -3.049   4.116  -4.884  1.00  0.00    -0.387 OA
ATOM     32  H   UNL     1      -2.989   3.660  -5.753  1.00  0.00    +0.211 HD
ENDBRANCH   4  31
TORSDOF 11
ENDMDL
MODEL 5
REMARK VINA RESULT:    -5.645      7.081      9.831
REMARK INTER + INTRA:         -10.133
REMARK INTER:                  -9.145
REMARK INTRA:                  -0.988
REMARK UNBOUND:                -1.848
REMARK SMILES O=S(=O)(O)OC[C@@H]1O[C@H](O[C@H]2[C@@H]3OC[C@H]2O[C@@H](O)[C@H]3O)[C@@H](O)[C@H](O)[C@@H]1O
REMARK SMILES IDX 9 1 21 2 23 3 25 4 7 5 8 6 10 7 11 8 14 9 15 10 13 11 16 12
REMARK SMILES IDX 12 13 17 14 19 15 18 16 20 18 22 20 24 22 6 24 5 25 2 26
REMARK SMILES IDX 1 27 3 28 4 29 26 31
REMARK H PARENT 18 17 20 19 22 21 24 23 4 30 26 32
ROOT
ATOM      1  C   UNL     1      -4.561   5.945  -9.497  1.00  0.00    +0.282 C 
ATOM      2  C   UNL     1      -3.417   6.116 -10.516  1.00  0.00    +0.202 C 
ATOM      3  C   UNL     1      -3.884   5.561 -11.851  1.00  0.00    +0.179 C 
ATOM      4  C   UNL     1      -5.053   6.404 -12.368  1.00  0.00    +0.177 C 
ATOM      5  C   UNL     1      -5.995   6.885 -11.238  1.00  0.00    +0.180 C 
ATOM      6  O   UNL     1      -5.871   6.089 -10.044  1.00  0.00    -0.341 OA
ENDROOT
BRANCH   1   7
ATOM      7  O   UNL     1      -4.308   6.831  -8.403  1.00  0.00    -0.341 OA
BRANCH   7   8
ATOM      8  C   UNL     1      -4.884   6.382  -7.181  1.00  0.00    +0.184 C 
ATOM      9  C   UNL     1      -4.950   6.238  -4.842  1.00  0.00    +0.195 C 
ATOM     10  C   UNL     1      -4.462   7.171  -5.951  1.00  0.00    +0.179 C 
ATOM     11  O   UNL     1      -4.809   4.893  -5.366  1.00  0.00    -0.370 OA
ATOM     12  O   UNL     1      -3.036   7.367  -5.945  1.00  0.00    -0.342 OA
ATOM     13  C   UNL     1      -4.345   5.028  -6.735  1.00  0.00    +0.184 C 
ATOM     14  C   UNL     1      -2.238   6.188  -5.931  1.00  0.00    +0.279 C 
ATOM     15  C   UNL     1      -2.811   5.029  -6.776  1.00  0.00    +0.202 C 
BRANCH  14  16
ATOM     16  O   UNL     1      -2.057   5.775  -4.579  1.00  0.00    -0.366 OA
ATOM     17  H   UNL     1      -1.590   6.518  -4.157  1.00  0.00    +0.213 HD
ENDBRANCH  14  16
BRANCH  15  18
ATOM     18  O   UNL     1      -2.300   3.768  -6.324  1.00  0.00    -0.385 OA
ATOM     19  H   UNL     1      -1.350   3.945  -6.152  1.00  0.00    +0.211 HD
ENDBRANCH  15  18
ENDBRANCH   7   8
ENDBRANCH   1   7
BRANCH   2  20
ATOM     20  O   UNL     1      -2.234   5.412 -10.100  1.00  0.00    -0.385 OA
ATOM     21  H   UNL     1      -1.675   5.328 -10.897  1.00  0.00    +0.211 HD
ENDBRANCH   2  20
BRANCH   3  22
ATOM     22  O   UNL     1      -2.815   5.596 -12.810  1.00  0.00    -0.387 OA
ATOM     23  H   UNL     1      -2.999   4.849 -13.418  1.00  0.00    +0.211 HD
ENDBRANCH   3  22
BRANCH   5  24
ATOM     24  C   UNL     1      -5.930   8.393 -10.932  1.00  0.00    +0.220 C 
BRANCH  24  25
ATOM     25  O   UNL     1      -7.195   8.973 -11.245  1.00  0.00    -0.245 OA
BRANCH  25  26
ATOM     26  S   UNL     1      -7.478   9.385 -12.789  1.00  0.00    +0.397 S 
ATOM     27  O   UNL     1      -8.267   8.362 -13.436  1.00  0.00    -0.169 OA
ATOM     28  O   UNL     1      -6.246   9.884 -13.358  1.00  0.00    -0.169 OA
BRANCH  26  29
ATOM     29  O   UNL     1      -8.409  10.688 -12.621  1.00  0.00    -0.264 OA
ATOM     30  H   UNL     1      -7.844  11.467 -12.800  1.00  0.00    +0.236 HD
ENDBRANCH  26  29
ENDBRANCH  25  26
ENDBRANCH  24  25
ENDBRANCH   5  24
BRANCH   4  31
ATOM     31  O   UNL     1      -4.539   7.505 -13.125  1.00  0.00    -0.387 OA
ATOM     32  H   UNL     1      -4.498   7.176 -14.051  1.00  0.00    +0.211 HD
ENDBRANCH   4  31
TORSDOF 11
ENDMDL
MODEL 6
REMARK VINA RESULT:    -5.464      8.526     11.229
REMARK INTER + INTRA:          -9.869
REMARK INTER:                  -8.204
REMARK INTRA:                  -1.665
REMARK UNBOUND:                -1.848
REMARK SMILES O=S(=O)(O)OC[C@@H]1O[C@H](O[C@H]2[C@@H]3OC[C@H]2O[C@@H](O)[C@H]3O)[C@@H](O)[C@H](O)[C@@H]1O
REMARK SMILES IDX 9 1 21 2 23 3 25 4 7 5 8 6 10 7 11 8 14 9 15 10 13 11 16 12
REMARK SMILES IDX 12 13 17 14 19 15 18 16 20 18 22 20 24 22 6 24 5 25 2 26
REMARK SMILES IDX 1 27 3 28 4 29 26 31
REMARK H PARENT 18 17 20 19 22 21 24 23 4 30 26 32
ROOT
ATOM      1  C   UNL     1      -3.333   5.838 -13.803  1.00  0.00    +0.282 C 
ATOM      2  C   UNL     1      -2.100   6.318 -14.593  1.00  0.00    +0.202 C 
ATOM      3  C   UNL     1      -1.400   5.098 -15.166  1.00  0.00    +0.179 C 
ATOM      4  C   UNL     1      -2.323   4.415 -16.179  1.00  0.00    +0.177 C 
ATOM      5  C   UNL     1      -3.813   4.458 -15.761  1.00  0.00    +0.180 C 
ATOM      6  O   UNL     1      -3.979   4.690 -14.349  1.00  0.00    -0.341 OA
ENDROOT
BRANCH   1   7
ATOM      7  O   UNL     1      -4.212   6.955 -13.642  1.00  0.00    -0.341 OA
BRANCH   7   8
ATOM      8  C   UNL     1      -4.745   7.058 -12.326  1.00  0.00    +0.184 C 
ATOM      9  C   UNL     1      -6.132   8.044 -10.715  1.00  0.00    +0.195 C 
ATOM     10  C   UNL     1      -6.051   7.831 -12.227  1.00  0.00    +0.179 C 
ATOM     11  O   UNL     1      -4.761   8.172 -10.259  1.00  0.00    -0.370 OA
ATOM     12  O   UNL     1      -5.966   9.058 -12.972  1.00  0.00    -0.342 OA
ATOM     13  C   UNL     1      -3.917   7.962 -11.420  1.00  0.00    +0.184 C 
ATOM     14  C   UNL     1      -4.953   9.973 -12.567  1.00  0.00    +0.279 C 
ATOM     15  C   UNL     1      -3.636   9.299 -12.120  1.00  0.00    +0.202 C 
BRANCH  14  16
ATOM     16  O   UNL     1      -5.469  10.794 -11.523  1.00  0.00    -0.366 OA
ATOM     17  H   UNL     1      -5.797  10.164 -10.856  1.00  0.00    +0.213 HD
ENDBRANCH  14  16
BRANCH  15  18
ATOM     18  O   UNL     1      -2.888  10.165 -11.257  1.00  0.00    -0.385 OA
ATOM     19  H   UNL     1      -2.376   9.548 -10.690  1.00  0.00    +0.211 HD
ENDBRANCH  15  18
ENDBRANCH   7   8
ENDBRANCH   1   7
BRANCH   2  20
ATOM     20  O   UNL     1      -1.182   7.036 -13.749  1.00  0.00    -0.385 OA
ATOM     21  H   UNL     1      -0.623   6.358 -13.321  1.00  0.00    +0.211 HD
ENDBRANCH   2  20
BRANCH   3  22
ATOM     22  O   UNL     1      -0.180   5.482 -15.822  1.00  0.00    -0.387 OA
ATOM     23  H   UNL     1      -0.448   5.708 -16.738  1.00  0.00    +0.211 HD
ENDBRANCH   3  22
BRANCH   5  24
ATOM     24  C   UNL     1      -4.700   5.391 -16.605  1.00  0.00    +0.220 C 
BRANCH  24  25
ATOM     25  O   UNL     1      -6.042   4.911 -16.549  1.00  0.00    -0.245 OA
BRANCH  25  26
ATOM     26  S   UNL     1      -7.105   5.741 -15.645  1.00  0.00    +0.397 S 
ATOM     27  O   UNL     1      -7.160   5.184 -14.312  1.00  0.00    -0.169 OA
ATOM     28  O   UNL     1      -8.294   5.967 -16.435  1.00  0.00    -0.169 OA
BRANCH  26  29
ATOM     29  O   UNL     1      -6.400   7.185 -15.542  1.00  0.00    -0.264 OA
ATOM     30  H   UNL     1      -5.884   7.191 -14.710  1.00  0.00    +0.236 HD
ENDBRANCH  26  29
ENDBRANCH  25  26
ENDBRANCH  24  25
ENDBRANCH   5  24
BRANCH   4  31
ATOM     31  O   UNL     1      -2.124   5.005 -17.468  1.00  0.00    -0.387 OA
ATOM     32  H   UNL     1      -2.819   5.697 -17.538  1.00  0.00    +0.211 HD
ENDBRANCH   4  31
TORSDOF 11
ENDMDL
MODEL 7
REMARK VINA RESULT:    -5.459     14.670     17.499
REMARK INTER + INTRA:          -9.861
REMARK INTER:                  -8.857
REMARK INTRA:                  -1.004
REMARK UNBOUND:                -1.848
REMARK SMILES O=S(=O)(O)OC[C@@H]1O[C@H](O[C@H]2[C@@H]3OC[C@H]2O[C@@H](O)[C@H]3O)[C@@H](O)[C@H](O)[C@@H]1O
REMARK SMILES IDX 9 1 21 2 23 3 25 4 7 5 8 6 10 7 11 8 14 9 15 10 13 11 16 12
REMARK SMILES IDX 12 13 17 14 19 15 18 16 20 18 22 20 24 22 6 24 5 25 2 26
REMARK SMILES IDX 1 27 3 28 4 29 26 31
REMARK H PARENT 18 17 20 19 22 21 24 23 4 30 26 32
ROOT
ATOM      1  C   UNL     1     -11.653   3.281  -3.886  1.00  0.00    +0.282 C 
ATOM      2  C   UNL     1     -10.123   3.124  -3.976  1.00  0.00    +0.202 C 
ATOM      3  C   UNL     1      -9.569   3.051  -2.564  1.00  0.00    +0.179 C 
ATOM      4  C   UNL     1     -10.093   1.786  -1.880  1.00  0.00    +0.177 C 
ATOM      5  C   UNL     1     -11.553   1.451  -2.269  1.00  0.00    +0.180 C 
ATOM      6  O   UNL     1     -12.257   2.594  -2.791  1.00  0.00    -0.341 OA
ENDROOT
BRANCH   1   7
ATOM      7  O   UNL     1     -12.206   2.915  -5.153  1.00  0.00    -0.341 OA
BRANCH   7   8
ATOM      8  C   UNL     1     -13.517   3.432  -5.356  1.00  0.00    +0.184 C 
ATOM      9  C   UNL     1     -15.404   3.855  -6.682  1.00  0.00    +0.195 C 
ATOM     10  C   UNL     1     -14.244   2.865  -6.566  1.00  0.00    +0.179 C 
ATOM     11  O   UNL     1     -14.880   5.132  -6.234  1.00  0.00    -0.370 OA
ATOM     12  O   UNL     1     -13.380   2.862  -7.716  1.00  0.00    -0.342 OA
ATOM     13  C   UNL     1     -13.517   4.891  -5.799  1.00  0.00    +0.184 C 
ATOM     14  C   UNL     1     -12.882   4.129  -8.133  1.00  0.00    +0.279 C 
ATOM     15  C   UNL     1     -12.545   5.088  -6.970  1.00  0.00    +0.202 C 
BRANCH  14  16
ATOM     16  O   UNL     1     -13.833   4.727  -9.011  1.00  0.00    -0.366 OA
ATOM     17  H   UNL     1     -14.091   4.010  -9.616  1.00  0.00    +0.213 HD
ENDBRANCH  14  16
BRANCH  15  18
ATOM     18  O   UNL     1     -12.568   6.452  -7.411  1.00  0.00    -0.385 OA
ATOM     19  H   UNL     1     -11.712   6.565  -7.878  1.00  0.00    +0.211 HD
ENDBRANCH  15  18
ENDBRANCH   7   8
ENDBRANCH   1   7
BRANCH   2  20
ATOM     20  O   UNL     1      -9.521   4.236  -4.663  1.00  0.00    -0.385 OA
ATOM     21  H   UNL     1     -10.202   4.937  -4.691  1.00  0.00    +0.211 HD
ENDBRANCH   2  20
BRANCH   3  22
ATOM     22  O   UNL     1      -8.132   3.015  -2.590  1.00  0.00    -0.387 OA
ATOM     23  H   UNL     1      -7.856   3.445  -1.753  1.00  0.00    +0.211 HD
ENDBRANCH   3  22
BRANCH   5  24
ATOM     24  C   UNL     1     -11.720   0.214  -3.171  1.00  0.00    +0.220 C 
BRANCH  24  25
ATOM     25  O   UNL     1     -13.061  -0.256  -3.050  1.00  0.00    -0.245 OA
BRANCH  25  26
ATOM     26  S   UNL     1     -13.714  -1.017  -4.326  1.00  0.00    +0.397 S 
ATOM     27  O   UNL     1     -13.401  -0.301  -5.541  1.00  0.00    -0.169 OA
ATOM     28  O   UNL     1     -15.065  -1.399  -3.983  1.00  0.00    -0.169 OA
BRANCH  26  29
ATOM     29  O   UNL     1     -12.890  -2.400  -4.348  1.00  0.00    -0.264 OA
ATOM     30  H   UNL     1     -11.940  -2.166  -4.373  1.00  0.00    +0.236 HD
ENDBRANCH  26  29
ENDBRANCH  25  26
ENDBRANCH  24  25
ENDBRANCH   5  24
BRANCH   4  31
ATOM     31  O   UNL     1      -9.211   0.696  -2.169  1.00  0.00    -0.387 OA
ATOM     32  H   UNL     1      -8.967   0.815  -3.114  1.00  0.00    +0.211 HD
ENDBRANCH   4  31
TORSDOF 11
ENDMDL
MODEL 8
REMARK VINA RESULT:    -5.416      8.381     11.410
REMARK INTER + INTRA:          -9.797
REMARK INTER:                  -8.145
REMARK INTRA:                  -1.651
REMARK UNBOUND:                -1.848
REMARK SMILES O=S(=O)(O)OC[C@@H]1O[C@H](O[C@H]2[C@@H]3OC[C@H]2O[C@@H](O)[C@H]3O)[C@@H](O)[C@H](O)[C@@H]1O
REMARK SMILES IDX 9 1 21 2 23 3 25 4 7 5 8 6 10 7 11 8 14 9 15 10 13 11 16 12
REMARK SMILES IDX 12 13 17 14 19 15 18 16 20 18 22 20 24 22 6 24 5 25 2 26
REMARK SMILES IDX 1 27 3 28 4 29 26 31
REMARK H PARENT 18 17 20 19 22 21 24 23 4 30 26 32
ROOT
ATOM      1  C   UNL     1      -2.413   4.389 -15.396  1.00  0.00    +0.282 C 
ATOM      2  C   UNL     1      -1.537   5.138 -16.419  1.00  0.00    +0.202 C 
ATOM      3  C   UNL     1      -1.274   4.206 -17.589  1.00  0.00    +0.179 C 
ATOM      4  C   UNL     1      -2.596   3.896 -18.296  1.00  0.00    +0.177 C 
ATOM      5  C   UNL     1      -3.786   3.762 -17.316  1.00  0.00    +0.180 C 
ATOM      6  O   UNL     1      -3.358   3.488 -15.969  1.00  0.00    -0.341 OA
ENDROOT
BRANCH   1   7
ATOM      7  O   UNL     1      -3.013   5.364 -14.537  1.00  0.00    -0.341 OA
BRANCH   7   8
ATOM      8  C   UNL     1      -2.416   5.408 -13.245  1.00  0.00    +0.184 C 
ATOM      9  C   UNL     1      -2.483   5.806 -10.936  1.00  0.00    +0.195 C 
ATOM     10  C   UNL     1      -3.404   5.401 -12.088  1.00  0.00    +0.179 C 
ATOM     11  O   UNL     1      -1.497   6.701 -11.513  1.00  0.00    -0.370 OA
ATOM     12  O   UNL     1      -4.465   6.342 -12.328  1.00  0.00    -0.342 OA
ATOM     13  C   UNL     1      -1.769   6.753 -12.938  1.00  0.00    +0.184 C 
ATOM     14  C   UNL     1      -4.077   7.703 -12.486  1.00  0.00    +0.279 C 
ATOM     15  C   UNL     1      -2.747   7.895 -13.248  1.00  0.00    +0.202 C 
BRANCH  14  16
ATOM     16  O   UNL     1      -4.004   8.310 -11.199  1.00  0.00    -0.366 OA
ATOM     17  H   UNL     1      -4.408   7.659 -10.598  1.00  0.00    +0.213 HD
ENDBRANCH  14  16
BRANCH  15  18
ATOM     18  O   UNL     1      -2.153   9.160 -12.927  1.00  0.00    -0.385 OA
ATOM     19  H   UNL     1      -2.145   9.641 -13.782  1.00  0.00    +0.211 HD
ENDBRANCH  15  18
ENDBRANCH   7   8
ENDBRANCH   1   7
BRANCH   2  20
ATOM     20  O   UNL     1      -0.281   5.538 -15.843  1.00  0.00    -0.385 OA
ATOM     21  H   UNL     1       0.246   4.720 -15.750  1.00  0.00    +0.211 HD
ENDBRANCH   2  20
BRANCH   3  22
ATOM     22  O   UNL     1      -0.369   4.818 -18.524  1.00  0.00    -0.387 OA
ATOM     23  H   UNL     1       0.366   5.161 -17.974  1.00  0.00    +0.211 HD
ENDBRANCH   3  22
BRANCH   5  24
ATOM     24  C   UNL     1      -4.810   4.911 -17.371  1.00  0.00    +0.220 C 
BRANCH  24  25
ATOM     25  O   UNL     1      -6.083   4.401 -16.983  1.00  0.00    -0.245 OA
BRANCH  25  26
ATOM     26  S   UNL     1      -6.786   5.041 -15.667  1.00  0.00    +0.397 S 
ATOM     27  O   UNL     1      -8.046   4.381 -15.409  1.00  0.00    -0.169 OA
ATOM     28  O   UNL     1      -6.674   6.480 -15.747  1.00  0.00    -0.169 OA
BRANCH  26  29
ATOM     29  O   UNL     1      -5.762   4.615 -14.500  1.00  0.00    -0.264 OA
ATOM     30  H   UNL     1      -5.030   4.125 -14.929  1.00  0.00    +0.236 HD
ENDBRANCH  26  29
ENDBRANCH  25  26
ENDBRANCH  24  25
ENDBRANCH   5  24
BRANCH   4  31
ATOM     31  O   UNL     1      -2.845   4.900 -19.287  1.00  0.00    -0.387 OA
ATOM     32  H   UNL     1      -3.717   4.661 -19.673  1.00  0.00    +0.211 HD
ENDBRANCH   4  31
TORSDOF 11
ENDMDL
MODEL 9
REMARK VINA RESULT:    -5.358     16.366     19.418
REMARK INTER + INTRA:          -9.712
REMARK INTER:                  -8.557
REMARK INTRA:                  -1.156
REMARK UNBOUND:                -1.848
REMARK SMILES O=S(=O)(O)OC[C@@H]1O[C@H](O[C@H]2[C@@H]3OC[C@H]2O[C@@H](O)[C@H]3O)[C@@H](O)[C@H](O)[C@@H]1O
REMARK SMILES IDX 9 1 21 2 23 3 25 4 7 5 8 6 10 7 11 8 14 9 15 10 13 11 16 12
REMARK SMILES IDX 12 13 17 14 19 15 18 16 20 18 22 20 24 22 6 24 5 25 2 26
REMARK SMILES IDX 1 27 3 28 4 29 26 31
REMARK H PARENT 18 17 20 19 22 21 24 23 4 30 26 32
ROOT
ATOM      1  C   UNL     1     -13.378   0.763  -1.452  1.00  0.00    +0.282 C 
ATOM      2  C   UNL     1     -11.855   0.792  -1.220  1.00  0.00    +0.202 C 
ATOM      3  C   UNL     1     -11.179   0.173  -2.431  1.00  0.00    +0.179 C 
ATOM      4  C   UNL     1     -11.446   1.044  -3.661  1.00  0.00    +0.177 C 
ATOM      5  C   UNL     1     -12.866   1.659  -3.667  1.00  0.00    +0.180 C 
ATOM      6  O   UNL     1     -13.776   0.944  -2.810  1.00  0.00    -0.341 OA
ENDROOT
BRANCH   1   7
ATOM      7  O   UNL     1     -13.975   1.707  -0.560  1.00  0.00    -0.341 OA
BRANCH   7   8
ATOM      8  C   UNL     1     -15.156   1.213   0.064  1.00  0.00    +0.184 C 
ATOM      9  C   UNL     1     -16.962   1.405   1.545  1.00  0.00    +0.195 C 
ATOM     10  C   UNL     1     -16.032   2.279   0.703  1.00  0.00    +0.179 C 
ATOM     11  O   UNL     1     -16.166   0.266   1.961  1.00  0.00    -0.370 OA
ATOM     12  O   UNL     1     -15.233   3.182   1.488  1.00  0.00    -0.342 OA
ATOM     13  C   UNL     1     -14.868   0.416   1.331  1.00  0.00    +0.184 C 
ATOM     14  C   UNL     1     -14.498   2.603   2.560  1.00  0.00    +0.279 C 
ATOM     15  C   UNL     1     -13.922   1.204   2.248  1.00  0.00    +0.202 C 
BRANCH  14  16
ATOM     16  O   UNL     1     -15.336   2.549   3.712  1.00  0.00    -0.366 OA
ATOM     17  H   UNL     1     -16.075   3.149   3.505  1.00  0.00    +0.213 HD
ENDBRANCH  14  16
BRANCH  15  18
ATOM     18  O   UNL     1     -13.677   0.472   3.456  1.00  0.00    -0.385 OA
ATOM     19  H   UNL     1     -13.936  -0.448   3.232  1.00  0.00    +0.211 HD
ENDBRANCH  15  18
ENDBRANCH   7   8
ENDBRANCH   1   7
BRANCH   2  20
ATOM     20  O   UNL     1     -11.488   0.051  -0.044  1.00  0.00    -0.385 OA
ATOM     21  H   UNL     1     -11.542  -0.893  -0.291  1.00  0.00    +0.211 HD
ENDBRANCH   2  20
BRANCH   3  22
ATOM     22  O   UNL     1      -9.760   0.076  -2.219  1.00  0.00    -0.387 OA
ATOM     23  H   UNL     1      -9.366   0.181  -3.110  1.00  0.00    +0.211 HD
ENDBRANCH   3  22
BRANCH   5  24
ATOM     24  C   UNL     1     -12.920   3.178  -3.421  1.00  0.00    +0.220 C 
BRANCH  24  25
ATOM     25  O   UNL     1     -13.603   3.789  -4.514  1.00  0.00    -0.245 OA
BRANCH  25  26
ATOM     26  S   UNL     1     -12.780   4.002  -5.897  1.00  0.00    +0.397 S 
ATOM     27  O   UNL     1     -13.306   3.132  -6.924  1.00  0.00    -0.169 OA
ATOM     28  O   UNL     1     -11.370   4.057  -5.582  1.00  0.00    -0.169 OA
BRANCH  26  29
ATOM     29  O   UNL     1     -13.171   5.513  -6.289  1.00  0.00    -0.264 OA
ATOM     30  H   UNL     1     -13.708   5.869  -5.552  1.00  0.00    +0.236 HD
ENDBRANCH  26  29
ENDBRANCH  25  26
ENDBRANCH  24  25
ENDBRANCH   5  24
BRANCH   4  31
ATOM     31  O   UNL     1     -10.437   2.057  -3.747  1.00  0.00    -0.387 OA
ATOM     32  H   UNL     1     -10.932   2.907  -3.732  1.00  0.00    +0.211 HD
ENDBRANCH   4  31
TORSDOF 11
ENDMDL
