MODEL 1
REMARK VINA RESULT:    -6.821      0.000      0.000
REMARK INTER + INTRA:         -11.248
REMARK INTER:                 -10.011
REMARK INTRA:                  -1.237
REMARK UNBOUND:                -1.237
REMARK SMILES O=S(=O)(O)OC[C@@H]1O[C@H](O[C@H]2[C@@H]3OC[C@H]2O[C@@H](O)[C@H]3O)[C@@H](O)[C@H](O)[C@@H]1O
REMARK SMILES IDX 9 1 21 2 23 3 25 4 7 5 8 6 10 7 11 8 14 9 15 10 13 11 16 12
REMARK SMILES IDX 12 13 17 14 19 15 18 16 20 18 22 20 24 22 6 24 5 25 2 26
REMARK SMILES IDX 1 27 3 28 4 29 26 31
REMARK H PARENT 18 17 20 19 22 21 24 23 4 30 26 32
ROOT
ATOM      1  C   UNL     1       8.322  -6.555  -7.464  1.00  0.00    +0.282 C 
ATOM      2  C   UNL     1       7.283  -5.418  -7.520  1.00  0.00    +0.202 C 
ATOM      3  C   UNL     1       7.089  -5.026  -8.975  1.00  0.00    +0.179 C 
ATOM      4  C   UNL     1       6.482  -6.206  -9.740  1.00  0.00    +0.177 C 
ATOM      5  C   UNL     1       7.023  -7.575  -9.265  1.00  0.00    +0.180 C 
ATOM      6  O   UNL     1       8.279  -7.457  -8.568  1.00  0.00    -0.341 OA
ENDROOT
BRANCH   1   7
ATOM      7  O   UNL     1       8.187  -7.209  -6.199  1.00  0.00    -0.341 OA
BRANCH   7   8
ATOM      8  C   UNL     1       9.427  -7.680  -5.681  1.00  0.00    +0.184 C 
ATOM      9  C   UNL     1      10.809  -9.350  -4.789  1.00  0.00    +0.195 C 
ATOM     10  C   UNL     1       9.593  -9.191  -5.703  1.00  0.00    +0.179 C 
ATOM     11  O   UNL     1      10.708  -8.286  -3.808  1.00  0.00    -0.370 OA
ATOM     12  O   UNL     1       8.410  -9.834  -5.195  1.00  0.00    -0.342 OA
ATOM     13  C   UNL     1       9.547  -7.495  -4.173  1.00  0.00    +0.184 C 
ATOM     14  C   UNL     1       8.044  -9.513  -3.857  1.00  0.00    +0.279 C 
ATOM     15  C   UNL     1       8.295  -8.038  -3.471  1.00  0.00    +0.202 C 
BRANCH  14  16
ATOM     16  O   UNL     1       8.741 -10.384  -2.970  1.00  0.00    -0.366 OA
ATOM     17  H   UNL     1       9.538 -10.648  -3.464  1.00  0.00    +0.213 HD
ENDBRANCH  14  16
BRANCH  15  18
ATOM     18  O   UNL     1       8.420  -7.898  -2.050  1.00  0.00    -0.385 OA
ATOM     19  H   UNL     1       7.806  -7.165  -1.830  1.00  0.00    +0.211 HD
ENDBRANCH  15  18
ENDBRANCH   7   8
ENDBRANCH   1   7
BRANCH   2  20
ATOM     20  O   UNL     1       7.721  -4.269  -6.776  1.00  0.00    -0.385 OA
ATOM     21  H   UNL     1       8.688  -4.367  -6.670  1.00  0.00    +0.211 HD
ENDBRANCH   2  20
BRANCH   3  22
ATOM     22  O   UNL     1       6.209  -3.894  -9.076  1.00  0.00    -0.387 OA
ATOM     23  H   UNL     1       5.663  -3.928  -8.262  1.00  0.00    +0.211 HD
ENDBRANCH   3  22
BRANCH   5  24
ATOM     24  C   UNL     1       6.015  -8.440  -8.486  1.00  0.00    +0.220 C 
BRANCH  24  25
ATOM     25  O   UNL     1       6.677  -9.627  -8.054  1.00  0.00    -0.245 OA
BRANCH  25  26
ATOM     26  S   UNL     1       5.781 -10.968  -7.867  1.00  0.00    +0.397 S 
ATOM     27  O   UNL     1       6.323 -12.040  -8.671  1.00  0.00    -0.169 OA
ATOM     28  O   UNL     1       4.386 -10.593  -7.922  1.00  0.00    -0.169 OA
BRANCH  26  29
ATOM     29  O   UNL     1       6.046 -11.334  -6.322  1.00  0.00    -0.264 OA
ATOM     30  H   UNL     1       6.962 -11.673  -6.263  1.00  0.00    +0.236 HD
ENDBRANCH  26  29
ENDBRANCH  25  26
ENDBRANCH  24  25
ENDBRANCH   5  24
BRANCH   4  31
ATOM     31  O   UNL     1       5.055  -6.144  -9.643  1.00  0.00    -0.387 OA
ATOM     32  H   UNL     1       4.879  -5.455  -8.963  1.00  0.00    +0.211 HD
ENDBRANCH   4  31
TORSDOF 11
ENDMDL
MODEL 2
REMARK VINA RESULT:    -5.816      2.580      6.768
REMARK INTER + INTRA:          -9.773
REMARK INTER:                  -8.727
REMARK INTRA:                  -1.047
REMARK UNBOUND:                -1.237
REMARK SMILES O=S(=O)(O)OC[C@@H]1O[C@H](O[C@H]2[C@@H]3OC[C@H]2O[C@@H](O)[C@H]3O)[C@@H](O)[C@H](O)[C@@H]1O
REMARK SMILES IDX 9 1 21 2 23 3 25 4 7 5 8 6 10 7 11 8 14 9 15 10 13 11 16 12
REMARK SMILES IDX 12 13 17 14 19 15 18 16 20 18 22 20 24 22 6 24 5 25 2 26
REMARK SMILES IDX 1 27 3 28 4 29 26 31
REMARK H PARENT 18 17 20 19 22 21 24 23 4 30 26 32
ROOT
ATOM      1  C   UNL     1       7.746 -11.121  -5.676  1.00  0.00    +0.282 C 
ATOM      2  C   UNL     1       7.370 -11.441  -4.216  1.00  0.00    +0.202 C 
ATOM      3  C   UNL     1       8.322 -12.509  -3.705  1.00  0.00    +0.179 C 
ATOM      4  C   UNL     1       9.745 -11.944  -3.672  1.00  0.00    +0.177 C 
ATOM      5  C   UNL     1      10.044 -10.995  -4.857  1.00  0.00    +0.180 C 
ATOM      6  O   UNL     1       9.141 -11.195  -5.961  1.00  0.00    -0.341 OA
ENDROOT
BRANCH   1   7
ATOM      7  O   UNL     1       7.170  -9.855  -6.008  1.00  0.00    -0.341 OA
BRANCH   7   8
ATOM      8  C   UNL     1       7.011  -9.668  -7.411  1.00  0.00    +0.184 C 
ATOM      9  C   UNL     1       7.657  -8.768  -9.476  1.00  0.00    +0.195 C 
ATOM     10  C   UNL     1       8.260  -9.190  -8.135  1.00  0.00    +0.179 C 
ATOM     11  O   UNL     1       6.325  -8.278  -9.175  1.00  0.00    -0.370 OA
ATOM     12  O   UNL     1       8.871  -8.102  -7.418  1.00  0.00    -0.342 OA
ATOM     13  C   UNL     1       6.122  -8.478  -7.752  1.00  0.00    +0.184 C 
ATOM     14  C   UNL     1       8.070  -6.939  -7.234  1.00  0.00    +0.279 C 
ATOM     15  C   UNL     1       6.577  -7.236  -6.973  1.00  0.00    +0.202 C 
BRANCH  14  16
ATOM     16  O   UNL     1       8.217  -6.098  -8.375  1.00  0.00    -0.366 OA
ATOM     17  H   UNL     1       9.171  -6.119  -8.573  1.00  0.00    +0.213 HD
ENDBRANCH  14  16
BRANCH  15  18
ATOM     18  O   UNL     1       5.764  -6.107  -7.319  1.00  0.00    -0.385 OA
ATOM     19  H   UNL     1       4.851  -6.465  -7.322  1.00  0.00    +0.211 HD
ENDBRANCH  15  18
ENDBRANCH   7   8
ENDBRANCH   1   7
BRANCH   2  20
ATOM     20  O   UNL     1       6.020 -11.925  -4.115  1.00  0.00    -0.385 OA
ATOM     21  H   UNL     1       5.805 -11.931  -3.161  1.00  0.00    +0.211 HD
ENDBRANCH   2  20
BRANCH   3  22
ATOM     22  O   UNL     1       7.946 -12.923  -2.380  1.00  0.00    -0.387 OA
ATOM     23  H   UNL     1       7.591 -12.114  -1.956  1.00  0.00    +0.211 HD
ENDBRANCH   3  22
BRANCH   5  24
ATOM     24  C   UNL     1      10.174  -9.507  -4.484  1.00  0.00    +0.220 C 
BRANCH  24  25
ATOM     25  O   UNL     1      11.385  -9.004  -5.043  1.00  0.00    -0.245 OA
BRANCH  25  26
ATOM     26  S   UNL     1      11.731  -7.435  -4.812  1.00  0.00    +0.397 S 
ATOM     27  O   UNL     1      13.145  -7.274  -4.555  1.00  0.00    -0.169 OA
ATOM     28  O   UNL     1      10.722  -6.870  -3.945  1.00  0.00    -0.169 OA
BRANCH  26  29
ATOM     29  O   UNL     1      11.424  -6.808  -6.262  1.00  0.00    -0.264 OA
ATOM     30  H   UNL     1      10.495  -6.500  -6.248  1.00  0.00    +0.236 HD
ENDBRANCH  26  29
ENDBRANCH  25  26
ENDBRANCH  24  25
ENDBRANCH   5  24
BRANCH   4  31
ATOM     31  O   UNL     1       9.964 -11.296  -2.414  1.00  0.00    -0.387 OA
ATOM     32  H   UNL     1      10.135 -10.355  -2.642  1.00  0.00    +0.211 HD
ENDBRANCH   4  31
TORSDOF 11
ENDMDL
MODEL 3
REMARK VINA RESULT:    -5.712     16.793     19.565
REMARK INTER + INTRA:          -9.620
REMARK INTER:                  -7.821
REMARK INTRA:                  -1.799
REMARK UNBOUND:                -1.237
REMARK SMILES O=S(=O)(O)OC[C@@H]1O[C@H](O[C@H]2[C@@H]3OC[C@H]2O[C@@H](O)[C@H]3O)[C@@H](O)[C@H](O)[C@@H]1O
REMARK SMILES IDX 9 1 21 2 23 3 25 4 7 5 8 6 10 7 11 8 14 9 15 10 13 11 16 12
REMARK SMILES IDX 12 13 17 14 19 15 18 16 20 18 22 20 24 22 6 24 5 25 2 26
REMARK SMILES IDX 1 27 3 28 4 29 26 31
REMARK H PARENT 18 17 20 19 22 21 24 23 4 30 26 32
ROOT
ATOM      1  C   UNL     1      -0.412   8.979 -14.374  1.00  0.00    +0.282 C 
ATOM      2  C   UNL     1      -1.484   7.995 -13.865  1.00  0.00    +0.202 C 
ATOM      3  C   UNL     1      -2.826   8.417 -14.438  1.00  0.00    +0.179 C 
ATOM      4  C   UNL     1      -2.793   8.271 -15.962  1.00  0.00    +0.177 C 
ATOM      5  C   UNL     1      -1.421   8.641 -16.574  1.00  0.00    +0.180 C 
ATOM      6  O   UNL     1      -0.634   9.468 -15.696  1.00  0.00    -0.341 OA
ENDROOT
BRANCH   1   7
ATOM      7  O   UNL     1       0.865   8.357 -14.212  1.00  0.00    -0.341 OA
BRANCH   7   8
ATOM      8  C   UNL     1       1.730   9.082 -13.344  1.00  0.00    +0.184 C 
ATOM      9  C   UNL     1       3.852   9.734 -12.592  1.00  0.00    +0.195 C 
ATOM     10  C   UNL     1       3.147   9.264 -13.865  1.00  0.00    +0.179 C 
ATOM     11  O   UNL     1       3.179   9.063 -11.496  1.00  0.00    -0.370 OA
ATOM     12  O   UNL     1       3.660   8.019 -14.373  1.00  0.00    -0.342 OA
ATOM     13  C   UNL     1       2.087   8.307 -12.081  1.00  0.00    +0.184 C 
ATOM     14  C   UNL     1       3.733   6.942 -13.445  1.00  0.00    +0.279 C 
ATOM     15  C   UNL     1       2.558   6.892 -12.443  1.00  0.00    +0.202 C 
BRANCH  14  16
ATOM     16  O   UNL     1       4.975   7.020 -12.750  1.00  0.00    -0.366 OA
ATOM     17  H   UNL     1       4.755   7.451 -11.905  1.00  0.00    +0.213 HD
ENDBRANCH  14  16
BRANCH  15  18
ATOM     18  O   UNL     1       2.928   6.172 -11.259  1.00  0.00    -0.385 OA
ATOM     19  H   UNL     1       2.576   6.723 -10.528  1.00  0.00    +0.211 HD
ENDBRANCH  15  18
ENDBRANCH   7   8
ENDBRANCH   1   7
BRANCH   2  20
ATOM     20  O   UNL     1      -1.561   8.000 -12.429  1.00  0.00    -0.385 OA
ATOM     21  H   UNL     1      -1.116   7.183 -12.131  1.00  0.00    +0.211 HD
ENDBRANCH   2  20
BRANCH   3  22
ATOM     22  O   UNL     1      -3.879   7.596 -13.906  1.00  0.00    -0.387 OA
ATOM     23  H   UNL     1      -4.702   7.963 -14.293  1.00  0.00    +0.211 HD
ENDBRANCH   3  22
BRANCH   5  24
ATOM     24  C   UNL     1      -0.610   7.453 -17.123  1.00  0.00    +0.220 C 
BRANCH  24  25
ATOM     25  O   UNL     1       0.333   7.948 -18.071  1.00  0.00    -0.245 OA
BRANCH  25  26
ATOM     26  S   UNL     1       1.911   7.787 -17.725  1.00  0.00    +0.397 S 
ATOM     27  O   UNL     1       2.467   9.067 -17.350  1.00  0.00    -0.169 OA
ATOM     28  O   UNL     1       2.514   6.952 -18.739  1.00  0.00    -0.169 OA
BRANCH  26  29
ATOM     29  O   UNL     1       1.871   6.866 -16.406  1.00  0.00    -0.264 OA
ATOM     30  H   UNL     1       0.938   6.830 -16.111  1.00  0.00    +0.236 HD
ENDBRANCH  26  29
ENDBRANCH  25  26
ENDBRANCH  24  25
ENDBRANCH   5  24
BRANCH   4  31
ATOM     31  O   UNL     1      -3.181   6.938 -16.314  1.00  0.00    -0.387 OA
ATOM     32  H   UNL     1      -4.082   7.031 -16.696  1.00  0.00    +0.211 HD
ENDBRANCH   4  31
TORSDOF 11
ENDMDL
MODEL 4
REMARK VINA RESULT:    -5.477      2.528      4.584
REMARK INTER + INTRA:          -9.276
REMARK INTER:                  -8.272
REMARK INTRA:                  -1.004
REMARK UNBOUND:                -1.237
REMARK SMILES O=S(=O)(O)OC[C@@H]1O[C@H](O[C@H]2[C@@H]3OC[C@H]2O[C@@H](O)[C@H]3O)[C@@H](O)[C@H](O)[C@@H]1O
REMARK SMILES IDX 9 1 21 2 23 3 25 4 7 5 8 6 10 7 11 8 14 9 15 10 13 11 16 12
REMARK SMILES IDX 12 13 17 14 19 15 18 16 20 18 22 20 24 22 6 24 5 25 2 26
REMARK SMILES IDX 1 27 3 28 4 29 26 31
REMARK H PARENT 18 17 20 19 22 21 24 23 4 30 26 32
ROOT
ATOM      1  C   UNL     1       9.273  -9.407  -5.493  1.00  0.00    +0.282 C 
ATOM      2  C   UNL     1       9.570  -8.313  -4.449  1.00  0.00    +0.202 C 
ATOM      3  C   UNL     1      10.389  -7.225  -5.122  1.00  0.00    +0.179 C 
ATOM      4  C   UNL     1       9.548  -6.562  -6.216  1.00  0.00    +0.177 C 
ATOM      5  C   UNL     1       8.634  -7.563  -6.964  1.00  0.00    +0.180 C 
ATOM      6  O   UNL     1       9.082  -8.925  -6.822  1.00  0.00    -0.341 OA
ENDROOT
BRANCH   1   7
ATOM      7  O   UNL     1       8.172 -10.184  -5.013  1.00  0.00    -0.341 OA
BRANCH   7   8
ATOM      8  C   UNL     1       8.077 -11.459  -5.640  1.00  0.00    +0.184 C 
ATOM      9  C   UNL     1       7.204 -13.626  -5.823  1.00  0.00    +0.195 C 
ATOM     10  C   UNL     1       6.818 -12.242  -5.300  1.00  0.00    +0.179 C 
ATOM     11  O   UNL     1       8.636 -13.739  -5.623  1.00  0.00    -0.370 OA
ATOM     12  O   UNL     1       6.576 -12.214  -3.882  1.00  0.00    -0.342 OA
ATOM     13  C   UNL     1       9.083 -12.465  -5.093  1.00  0.00    +0.184 C 
ATOM     14  C   UNL     1       7.599 -12.765  -3.058  1.00  0.00    +0.279 C 
ATOM     15  C   UNL     1       9.033 -12.483  -3.559  1.00  0.00    +0.202 C 
BRANCH  14  16
ATOM     16  O   UNL     1       7.382 -14.168  -2.937  1.00  0.00    -0.366 OA
ATOM     17  H   UNL     1       6.414 -14.264  -2.895  1.00  0.00    +0.213 HD
ENDBRANCH  14  16
BRANCH  15  18
ATOM     18  O   UNL     1       9.953 -13.453  -3.043  1.00  0.00    -0.385 OA
ATOM     19  H   UNL     1      10.196 -13.990  -3.827  1.00  0.00    +0.211 HD
ENDBRANCH  15  18
ENDBRANCH   7   8
ENDBRANCH   1   7
BRANCH   2  20
ATOM     20  O   UNL     1      10.308  -8.839  -3.333  1.00  0.00    -0.385 OA
ATOM     21  H   UNL     1       9.673  -8.899  -2.592  1.00  0.00    +0.211 HD
ENDBRANCH   2  20
BRANCH   3  22
ATOM     22  O   UNL     1      10.786  -6.231  -4.162  1.00  0.00    -0.387 OA
ATOM     23  H   UNL     1      11.154  -5.498  -4.699  1.00  0.00    +0.211 HD
ENDBRANCH   3  22
BRANCH   5  24
ATOM     24  C   UNL     1       7.130  -7.420  -6.668  1.00  0.00    +0.220 C 
BRANCH  24  25
ATOM     25  O   UNL     1       6.559  -6.546  -7.639  1.00  0.00    -0.245 OA
BRANCH  25  26
ATOM     26  S   UNL     1       5.660  -7.207  -8.817  1.00  0.00    +0.397 S 
ATOM     27  O   UNL     1       5.935  -8.623  -8.912  1.00  0.00    -0.169 OA
ATOM     28  O   UNL     1       5.707  -6.335  -9.968  1.00  0.00    -0.169 OA
BRANCH  26  29
ATOM     29  O   UNL     1       4.169  -7.037  -8.234  1.00  0.00    -0.264 OA
ATOM     30  H   UNL     1       3.613  -7.714  -8.671  1.00  0.00    +0.236 HD
ENDBRANCH  26  29
ENDBRANCH  25  26
ENDBRANCH  24  25
ENDBRANCH   5  24
BRANCH   4  31
ATOM     31  O   UNL     1       8.791  -5.491  -5.642  1.00  0.00    -0.387 OA
ATOM     32  H   UNL     1       8.934  -4.729  -6.247  1.00  0.00    +0.211 HD
ENDBRANCH   4  31
TORSDOF 11
ENDMDL
MODEL 5
REMARK VINA RESULT:    -5.334     15.097     18.138
REMARK INTER + INTRA:          -9.066
REMARK INTER:                  -8.069
REMARK INTRA:                  -0.997
REMARK UNBOUND:                -1.237
REMARK SMILES O=S(=O)(O)OC[C@@H]1O[C@H](O[C@H]2[C@@H]3OC[C@H]2O[C@@H](O)[C@H]3O)[C@@H](O)[C@H](O)[C@@H]1O
REMARK SMILES IDX 9 1 21 2 23 3 25 4 7 5 8 6 10 7 11 8 14 9 15 10 13 11 16 12
REMARK SMILES IDX 12 13 17 14 19 15 18 16 20 18 22 20 24 22 6 24 5 25 2 26
REMARK SMILES IDX 1 27 3 28 4 29 26 31
REMARK H PARENT 18 17 20 19 22 21 24 23 4 30 26 32
ROOT
ATOM      1  C   UNL     1       5.489   6.561 -14.088  1.00  0.00    +0.282 C 
ATOM      2  C   UNL     1       5.172   5.413 -13.111  1.00  0.00    +0.202 C 
ATOM      3  C   UNL     1       5.094   5.991 -11.708  1.00  0.00    +0.179 C 
ATOM      4  C   UNL     1       3.917   6.967 -11.628  1.00  0.00    +0.177 C 
ATOM      5  C   UNL     1       3.721   7.784 -12.927  1.00  0.00    +0.180 C 
ATOM      6  O   UNL     1       4.911   7.817 -13.739  1.00  0.00    -0.341 OA
ENDROOT
BRANCH   1   7
ATOM      7  O   UNL     1       5.136   6.126 -15.404  1.00  0.00    -0.341 OA
BRANCH   7   8
ATOM      8  C   UNL     1       5.825   6.836 -16.427  1.00  0.00    +0.184 C 
ATOM      9  C   UNL     1       6.055   7.613 -18.627  1.00  0.00    +0.195 C 
ATOM     10  C   UNL     1       4.969   7.215 -17.626  1.00  0.00    +0.179 C 
ATOM     11  O   UNL     1       7.194   6.763 -18.335  1.00  0.00    -0.370 OA
ATOM     12  O   UNL     1       4.182   6.091 -18.057  1.00  0.00    -0.342 OA
ATOM     13  C   UNL     1       6.831   5.969 -17.176  1.00  0.00    +0.184 C 
ATOM     14  C   UNL     1       4.905   4.932 -18.459  1.00  0.00    +0.279 C 
ATOM     15  C   UNL     1       6.172   4.656 -17.619  1.00  0.00    +0.202 C 
BRANCH  14  16
ATOM     16  O   UNL     1       5.241   5.059 -19.838  1.00  0.00    -0.366 OA
ATOM     17  H   UNL     1       4.499   4.641 -20.310  1.00  0.00    +0.213 HD
ENDBRANCH  14  16
BRANCH  15  18
ATOM     18  O   UNL     1       7.105   3.853 -18.354  1.00  0.00    -0.385 OA
ATOM     19  H   UNL     1       6.651   2.989 -18.448  1.00  0.00    +0.211 HD
ENDBRANCH  15  18
ENDBRANCH   7   8
ENDBRANCH   1   7
BRANCH   2  20
ATOM     20  O   UNL     1       6.187   4.396 -13.147  1.00  0.00    -0.385 OA
ATOM     21  H   UNL     1       5.714   3.543 -13.214  1.00  0.00    +0.211 HD
ENDBRANCH   2  20
BRANCH   3  22
ATOM     22  O   UNL     1       4.907   4.943 -10.742  1.00  0.00    -0.387 OA
ATOM     23  H   UNL     1       5.312   4.150 -11.153  1.00  0.00    +0.211 HD
ENDBRANCH   3  22
BRANCH   5  24
ATOM     24  C   UNL     1       2.475   7.411 -13.751  1.00  0.00    +0.220 C 
BRANCH  24  25
ATOM     25  O   UNL     1       1.334   8.008 -13.141  1.00  0.00    -0.245 OA
BRANCH  25  26
ATOM     26  S   UNL     1      -0.056   8.015 -13.979  1.00  0.00    +0.397 S 
ATOM     27  O   UNL     1       0.058   8.899 -15.117  1.00  0.00    -0.169 OA
ATOM     28  O   UNL     1      -1.152   8.105 -13.041  1.00  0.00    -0.169 OA
BRANCH  26  29
ATOM     29  O   UNL     1      -0.117   6.506 -14.537  1.00  0.00    -0.264 OA
ATOM     30  H   UNL     1       0.674   6.043 -14.194  1.00  0.00    +0.236 HD
ENDBRANCH  26  29
ENDBRANCH  25  26
ENDBRANCH  24  25
ENDBRANCH   5  24
BRANCH   4  31
ATOM     31  O   UNL     1       2.731   6.243 -11.281  1.00  0.00    -0.387 OA
ATOM     32  H   UNL     1       2.497   5.740 -12.092  1.00  0.00    +0.211 HD
ENDBRANCH   4  31
TORSDOF 11
ENDMDL
MODEL 6
REMARK VINA RESULT:    -5.266     23.192     25.280
REMARK INTER + INTRA:          -8.966
REMARK INTER:                  -7.800
REMARK INTRA:                  -1.166
REMARK UNBOUND:                -1.237
REMARK SMILES O=S(=O)(O)OC[C@@H]1O[C@H](O[C@H]2[C@@H]3OC[C@H]2O[C@@H](O)[C@H]3O)[C@@H](O)[C@H](O)[C@@H]1O
REMARK SMILES IDX 9 1 21 2 23 3 25 4 7 5 8 6 10 7 11 8 14 9 15 10 13 11 16 12
REMARK SMILES IDX 12 13 17 14 19 15 18 16 20 18 22 20 24 22 6 24 5 25 2 26
REMARK SMILES IDX 1 27 3 28 4 29 26 31
REMARK H PARENT 18 17 20 19 22 21 24 23 4 30 26 32
ROOT
ATOM      1  C   UNL     1       8.583  -1.786  17.465  1.00  0.00    +0.282 C 
ATOM      2  C   UNL     1       8.663  -2.662  16.200  1.00  0.00    +0.202 C 
ATOM      3  C   UNL     1       9.500  -3.888  16.524  1.00  0.00    +0.179 C 
ATOM      4  C   UNL     1       8.780  -4.725  17.585  1.00  0.00    +0.177 C 
ATOM      5  C   UNL     1       8.043  -3.861  18.637  1.00  0.00    +0.180 C 
ATOM      6  O   UNL     1       8.549  -2.514  18.692  1.00  0.00    -0.341 OA
ENDROOT
BRANCH   1   7
ATOM      7  O   UNL     1       7.476  -0.894  17.311  1.00  0.00    -0.341 OA
BRANCH   7   8
ATOM      8  C   UNL     1       7.859   0.477  17.334  1.00  0.00    +0.184 C 
ATOM      9  C   UNL     1       7.570   2.707  17.995  1.00  0.00    +0.195 C 
ATOM     10  C   UNL     1       7.254   1.288  18.470  1.00  0.00    +0.179 C 
ATOM     11  O   UNL     1       7.512   2.662  16.546  1.00  0.00    -0.370 OA
ATOM     12  O   UNL     1       5.844   1.024  18.579  1.00  0.00    -0.342 OA
ATOM     13  C   UNL     1       7.261   1.280  16.184  1.00  0.00    +0.184 C 
ATOM     14  C   UNL     1       5.055   1.328  17.434  1.00  0.00    +0.279 C 
ATOM     15  C   UNL     1       5.751   1.023  16.089  1.00  0.00    +0.202 C 
BRANCH  14  16
ATOM     16  O   UNL     1       4.671   2.700  17.494  1.00  0.00    -0.366 OA
ATOM     17  H   UNL     1       4.949   3.069  16.637  1.00  0.00    +0.213 HD
ENDBRANCH  14  16
BRANCH  15  18
ATOM     18  O   UNL     1       5.180   1.803  15.031  1.00  0.00    -0.385 OA
ATOM     19  H   UNL     1       4.410   2.244  15.450  1.00  0.00    +0.211 HD
ENDBRANCH  15  18
ENDBRANCH   7   8
ENDBRANCH   1   7
BRANCH   2  20
ATOM     20  O   UNL     1       9.270  -1.951  15.107  1.00  0.00    -0.385 OA
ATOM     21  H   UNL     1       8.867  -1.061  15.106  1.00  0.00    +0.211 HD
ENDBRANCH   2  20
BRANCH   3  22
ATOM     22  O   UNL     1       9.697  -4.686  15.345  1.00  0.00    -0.387 OA
ATOM     23  H   UNL     1      10.162  -4.094  14.717  1.00  0.00    +0.211 HD
ENDBRANCH   3  22
BRANCH   5  24
ATOM     24  C   UNL     1       6.506  -3.893  18.546  1.00  0.00    +0.220 C 
BRANCH  24  25
ATOM     25  O   UNL     1       6.061  -5.208  18.870  1.00  0.00    -0.245 OA
BRANCH  25  26
ATOM     26  S   UNL     1       4.685  -5.732  18.186  1.00  0.00    +0.397 S 
ATOM     27  O   UNL     1       3.660  -4.720  18.300  1.00  0.00    -0.169 OA
ATOM     28  O   UNL     1       4.466  -7.100  18.598  1.00  0.00    -0.169 OA
BRANCH  26  29
ATOM     29  O   UNL     1       5.102  -5.833  16.634  1.00  0.00    -0.264 OA
ATOM     30  H   UNL     1       5.025  -4.932  16.259  1.00  0.00    +0.236 HD
ENDBRANCH  26  29
ENDBRANCH  25  26
ENDBRANCH  24  25
ENDBRANCH   5  24
BRANCH   4  31
ATOM     31  O   UNL     1       7.886  -5.636  16.937  1.00  0.00    -0.387 OA
ATOM     32  H   UNL     1       8.441  -6.101  16.271  1.00  0.00    +0.211 HD
ENDBRANCH   4  31
TORSDOF 11
ENDMDL
MODEL 7
REMARK VINA RESULT:    -5.065      3.115      6.047
REMARK INTER + INTRA:          -8.671
REMARK INTER:                  -7.392
REMARK INTRA:                  -1.279
REMARK UNBOUND:                -1.237
REMARK SMILES O=S(=O)(O)OC[C@@H]1O[C@H](O[C@H]2[C@@H]3OC[C@H]2O[C@@H](O)[C@H]3O)[C@@H](O)[C@H](O)[C@@H]1O
REMARK SMILES IDX 9 1 21 2 23 3 25 4 7 5 8 6 10 7 11 8 14 9 15 10 13 11 16 12
REMARK SMILES IDX 12 13 17 14 19 15 18 16 20 18 22 20 24 22 6 24 5 25 2 26
REMARK SMILES IDX 1 27 3 28 4 29 26 31
REMARK H PARENT 18 17 20 19 22 21 24 23 4 30 26 32
ROOT
ATOM      1  C   UNL     1       8.436  -8.760  -5.873  1.00  0.00    +0.282 C 
ATOM      2  C   UNL     1       8.719  -7.473  -6.672  1.00  0.00    +0.202 C 
ATOM      3  C   UNL     1       8.958  -6.344  -5.685  1.00  0.00    +0.179 C 
ATOM      4  C   UNL     1      10.225  -6.639  -4.876  1.00  0.00    +0.177 C 
ATOM      5  C   UNL     1      10.395  -8.142  -4.550  1.00  0.00    +0.180 C 
ATOM      6  O   UNL     1       9.155  -8.868  -4.646  1.00  0.00    -0.341 OA
ENDROOT
BRANCH   1   7
ATOM      7  O   UNL     1       8.644  -9.873  -6.747  1.00  0.00    -0.341 OA
BRANCH   7   8
ATOM      8  C   UNL     1       8.511 -11.128  -6.088  1.00  0.00    +0.184 C 
ATOM      9  C   UNL     1       8.268 -13.460  -6.085  1.00  0.00    +0.195 C 
ATOM     10  C   UNL     1       8.843 -12.337  -6.950  1.00  0.00    +0.179 C 
ATOM     11  O   UNL     1       7.114 -12.892  -5.414  1.00  0.00    -0.370 OA
ATOM     12  O   UNL     1       8.207 -12.226  -8.236  1.00  0.00    -0.342 OA
ATOM     13  C   UNL     1       7.060 -11.493  -5.796  1.00  0.00    +0.184 C 
ATOM     14  C   UNL     1       6.786 -12.143  -8.232  1.00  0.00    +0.279 C 
ATOM     15  C   UNL     1       6.206 -11.321  -7.059  1.00  0.00    +0.202 C 
BRANCH  14  16
ATOM     16  O   UNL     1       6.250 -13.464  -8.225  1.00  0.00    -0.366 OA
ATOM     17  H   UNL     1       5.700 -13.500  -7.423  1.00  0.00    +0.213 HD
ENDBRANCH  14  16
BRANCH  15  18
ATOM     18  O   UNL     1       4.847 -11.697  -6.797  1.00  0.00    -0.385 OA
ATOM     19  H   UNL     1       4.404 -10.847  -6.586  1.00  0.00    +0.211 HD
ENDBRANCH  15  18
ENDBRANCH   7   8
ENDBRANCH   1   7
BRANCH   2  20
ATOM     20  O   UNL     1       7.613  -7.129  -7.524  1.00  0.00    -0.385 OA
ATOM     21  H   UNL     1       6.807  -7.412  -7.048  1.00  0.00    +0.211 HD
ENDBRANCH   2  20
BRANCH   3  22
ATOM     22  O   UNL     1       9.120  -5.096  -6.379  1.00  0.00    -0.387 OA
ATOM     23  H   UNL     1       8.219  -4.711  -6.415  1.00  0.00    +0.211 HD
ENDBRANCH   3  22
BRANCH   5  24
ATOM     24  C   UNL     1      11.533  -8.849  -5.309  1.00  0.00    +0.220 C 
BRANCH  24  25
ATOM     25  O   UNL     1      12.762  -8.576  -4.638  1.00  0.00    -0.245 OA
BRANCH  25  26
ATOM     26  S   UNL     1      13.997  -8.007  -5.524  1.00  0.00    +0.397 S 
ATOM     27  O   UNL     1      13.583  -7.837  -6.898  1.00  0.00    -0.169 OA
ATOM     28  O   UNL     1      15.189  -8.742  -5.165  1.00  0.00    -0.169 OA
BRANCH  26  29
ATOM     29  O   UNL     1      14.213  -6.542  -4.893  1.00  0.00    -0.264 OA
ATOM     30  H   UNL     1      13.526  -6.423  -4.206  1.00  0.00    +0.236 HD
ENDBRANCH  26  29
ENDBRANCH  25  26
ENDBRANCH  24  25
ENDBRANCH   5  24
BRANCH   4  31
ATOM     31  O   UNL     1      11.361  -6.124  -5.579  1.00  0.00    -0.387 OA
ATOM     32  H   UNL     1      11.042  -5.292  -5.996  1.00  0.00    +0.211 HD
ENDBRANCH   4  31
TORSDOF 11
ENDMDL
MODEL 8
REMARK VINA RESULT:    -5.044      1.786      5.594
REMARK INTER + INTRA:          -8.640
REMARK INTER:                  -7.564
REMARK INTRA:                  -1.076
REMARK UNBOUND:                -1.237
REMARK SMILES O=S(=O)(O)OC[C@@H]1O[C@H](O[C@H]2[C@@H]3OC[C@H]2O[C@@H](O)[C@H]3O)[C@@H](O)[C@H](O)[C@@H]1O
REMARK SMILES IDX 9 1 21 2 23 3 25 4 7 5 8 6 10 7 11 8 14 9 15 10 13 11 16 12
REMARK SMILES IDX 12 13 17 14 19 15 18 16 20 18 22 20 24 22 6 24 5 25 2 26
REMARK SMILES IDX 1 27 3 28 4 29 26 31
REMARK H PARENT 18 17 20 19 22 21 24 23 4 30 26 32
ROOT
ATOM      1  C   UNL     1       7.723  -9.205  -4.818  1.00  0.00    +0.282 C 
ATOM      2  C   UNL     1       9.070  -9.498  -4.129  1.00  0.00    +0.202 C 
ATOM      3  C   UNL     1       8.949 -10.824  -3.397  1.00  0.00    +0.179 C 
ATOM      4  C   UNL     1       8.731 -11.946  -4.417  1.00  0.00    +0.177 C 
ATOM      5  C   UNL     1       7.841 -11.515  -5.606  1.00  0.00    +0.180 C 
ATOM      6  O   UNL     1       7.037 -10.359  -5.299  1.00  0.00    -0.341 OA
ENDROOT
BRANCH   1   7
ATOM      7  O   UNL     1       7.956  -8.225  -5.834  1.00  0.00    -0.341 OA
BRANCH   7   8
ATOM      8  C   UNL     1       6.916  -8.174  -6.805  1.00  0.00    +0.184 C 
ATOM      9  C   UNL     1       6.070  -7.618  -8.919  1.00  0.00    +0.195 C 
ATOM     10  C   UNL     1       7.392  -7.973  -8.236  1.00  0.00    +0.179 C 
ATOM     11  O   UNL     1       5.291  -6.902  -7.927  1.00  0.00    -0.370 OA
ATOM     12  O   UNL     1       8.367  -6.918  -8.298  1.00  0.00    -0.342 OA
ATOM     13  C   UNL     1       6.072  -6.909  -6.704  1.00  0.00    +0.184 C 
ATOM     14  C   UNL     1       7.936  -5.634  -7.859  1.00  0.00    +0.279 C 
ATOM     15  C   UNL     1       6.978  -5.671  -6.647  1.00  0.00    +0.202 C 
BRANCH  14  16
ATOM     16  O   UNL     1       7.324  -4.957  -8.954  1.00  0.00    -0.366 OA
ATOM     17  H   UNL     1       7.602  -4.029  -8.853  1.00  0.00    +0.213 HD
ENDBRANCH  14  16
BRANCH  15  18
ATOM     18  O   UNL     1       6.186  -4.478  -6.586  1.00  0.00    -0.385 OA
ATOM     19  H   UNL     1       5.273  -4.807  -6.441  1.00  0.00    +0.211 HD
ENDBRANCH  15  18
ENDBRANCH   7   8
ENDBRANCH   1   7
BRANCH   2  20
ATOM     20  O   UNL     1       9.413  -8.468  -3.186  1.00  0.00    -0.385 OA
ATOM     21  H   UNL     1       8.715  -7.787  -3.263  1.00  0.00    +0.211 HD
ENDBRANCH   2  20
BRANCH   3  22
ATOM     22  O   UNL     1      10.144 -11.093  -2.646  1.00  0.00    -0.387 OA
ATOM     23  H   UNL     1      10.799 -10.442  -2.975  1.00  0.00    +0.211 HD
ENDBRANCH   3  22
BRANCH   5  24
ATOM     24  C   UNL     1       8.576 -11.361  -6.950  1.00  0.00    +0.220 C 
BRANCH  24  25
ATOM     25  O   UNL     1       8.394 -12.556  -7.705  1.00  0.00    -0.245 OA
BRANCH  25  26
ATOM     26  S   UNL     1       7.100 -12.644  -8.682  1.00  0.00    +0.397 S 
ATOM     27  O   UNL     1       7.463 -13.283  -9.927  1.00  0.00    -0.169 OA
ATOM     28  O   UNL     1       6.413 -11.373  -8.641  1.00  0.00    -0.169 OA
BRANCH  26  29
ATOM     29  O   UNL     1       6.141 -13.654  -7.876  1.00  0.00    -0.264 OA
ATOM     30  H   UNL     1       5.364 -13.136  -7.582  1.00  0.00    +0.236 HD
ENDBRANCH  26  29
ENDBRANCH  25  26
ENDBRANCH  24  25
ENDBRANCH   5  24
BRANCH   4  31
ATOM     31  O   UNL     1      10.003 -12.428  -4.863  1.00  0.00    -0.387 OA
ATOM     32  H   UNL     1      10.285 -13.070  -4.173  1.00  0.00    +0.211 HD
ENDBRANCH   4  31
TORSDOF 11
ENDMDL
MODEL 9
REMARK VINA RESULT:    -4.998     17.418     19.923
REMARK INTER + INTRA:          -8.573
REMARK INTER:                  -7.385
REMARK INTRA:                  -1.188
REMARK UNBOUND:                -1.237
REMARK SMILES O=S(=O)(O)OC[C@@H]1O[C@H](O[C@H]2[C@@H]3OC[C@H]2O[C@@H](O)[C@H]3O)[C@@H](O)[C@H](O)[C@@H]1O
REMARK SMILES IDX 9 1 21 2 23 3 25 4 7 5 8 6 10 7 11 8 14 9 15 10 13 11 16 12
REMARK SMILES IDX 12 13 17 14 19 15 18 16 20 18 22 20 24 22 6 24 5 25 2 26
REMARK SMILES IDX 1 27 3 28 4 29 26 31
REMARK H PARENT 18 17 20 19 22 21 24 23 4 30 26 32
ROOT
ATOM      1  C   UNL     1       0.532  10.065 -13.919  1.00  0.00    +0.282 C 
ATOM      2  C   UNL     1      -0.504   9.002 -13.502  1.00  0.00    +0.202 C 
ATOM      3  C   UNL     1      -0.929   8.242 -14.746  1.00  0.00    +0.179 C 
ATOM      4  C   UNL     1       0.273   7.477 -15.308  1.00  0.00    +0.177 C 
ATOM      5  C   UNL     1       1.602   8.258 -15.167  1.00  0.00    +0.180 C 
ATOM      6  O   UNL     1       1.392   9.671 -14.986  1.00  0.00    -0.341 OA
ENDROOT
BRANCH   1   7
ATOM      7  O   UNL     1       1.241  10.469 -12.744  1.00  0.00    -0.341 OA
BRANCH   7   8
ATOM      8  C   UNL     1       2.050  11.622 -12.953  1.00  0.00    +0.184 C 
ATOM      9  C   UNL     1       4.118  12.722 -13.056  1.00  0.00    +0.195 C 
ATOM     10  C   UNL     1       3.515  11.328 -13.241  1.00  0.00    +0.179 C 
ATOM     11  O   UNL     1       3.324  13.363 -12.024  1.00  0.00    -0.370 OA
ATOM     12  O   UNL     1       4.025  10.358 -12.309  1.00  0.00    -0.342 OA
ATOM     13  C   UNL     1       2.263  12.435 -11.681  1.00  0.00    +0.184 C 
ATOM     14  C   UNL     1       3.974  10.719 -10.932  1.00  0.00    +0.279 C 
ATOM     15  C   UNL     1       2.712  11.517 -10.536  1.00  0.00    +0.202 C 
BRANCH  14  16
ATOM     16  O   UNL     1       5.150  11.456 -10.609  1.00  0.00    -0.366 OA
ATOM     17  H   UNL     1       4.829  12.355 -10.416  1.00  0.00    +0.213 HD
ENDBRANCH  14  16
BRANCH  15  18
ATOM     18  O   UNL     1       2.946  12.283  -9.347  1.00  0.00    -0.385 OA
ATOM     19  H   UNL     1       2.114  12.187  -8.836  1.00  0.00    +0.211 HD
ENDBRANCH  15  18
ENDBRANCH   7   8
ENDBRANCH   1   7
BRANCH   2  20
ATOM     20  O   UNL     1      -1.661   9.605 -12.898  1.00  0.00    -0.385 OA
ATOM     21  H   UNL     1      -2.168  10.009 -13.629  1.00  0.00    +0.211 HD
ENDBRANCH   2  20
BRANCH   3  22
ATOM     22  O   UNL     1      -1.977   7.309 -14.430  1.00  0.00    -0.387 OA
ATOM     23  H   UNL     1      -1.971   7.249 -13.451  1.00  0.00    +0.211 HD
ENDBRANCH   3  22
BRANCH   5  24
ATOM     24  C   UNL     1       2.587   7.687 -14.129  1.00  0.00    +0.220 C 
BRANCH  24  25
ATOM     25  O   UNL     1       3.551   6.889 -14.811  1.00  0.00    -0.245 OA
BRANCH  25  26
ATOM     26  S   UNL     1       5.041   6.792 -14.173  1.00  0.00    +0.397 S 
ATOM     27  O   UNL     1       5.937   6.151 -15.109  1.00  0.00    -0.169 OA
ATOM     28  O   UNL     1       4.919   6.356 -12.801  1.00  0.00    -0.169 OA
BRANCH  26  29
ATOM     29  O   UNL     1       5.464   8.342 -14.075  1.00  0.00    -0.264 OA
ATOM     30  H   UNL     1       4.954   8.821 -14.759  1.00  0.00    +0.236 HD
ENDBRANCH  26  29
ENDBRANCH  25  26
ENDBRANCH  24  25
ENDBRANCH   5  24
BRANCH   4  31
ATOM     31  O   UNL     1       0.350   6.194 -14.677  1.00  0.00    -0.387 OA
ATOM     32  H   UNL     1       0.996   5.687 -15.218  1.00  0.00    +0.211 HD
ENDBRANCH   4  31
TORSDOF 11
ENDMDL
