MODEL 1
REMARK VINA RESULT:    -7.195      0.000      0.000
REMARK INTER + INTRA:         -17.064
REMARK INTER:                 -14.766
REMARK INTRA:                  -2.298
REMARK UNBOUND:                -2.298
REMARK SMILES O=C[C@@H](O)[C@@H](O)[C@H](CO)O[C@H]1OC[C@@H](O[C@@H]2OC[C@H](O[C@H]3OC[C@H](O[C@H]4OC[C@H](O)[C@H](O)[C@@H]4O)[C@@H](O)[C@H]3O)[C@H](O)[C@@H]2O)[C@@H](O)[C@H]1O
REMARK SMILES IDX 15 1 16 2 19 3 18 4 39 5 17 6 41 7 20 8 21 9 24 10 23 11
REMARK SMILES IDX 35 12 22 13 37 14 25 15 26 16 28 17 29 18 27 19 31 20 33 21
REMARK SMILES IDX 30 22 32 24 34 26 36 28 38 30 40 32 42 34 14 36 13 37 43 38
REMARK SMILES IDX 12 39 45 40 11 41 44 42 46 44 10 46 7 47 8 48 9 49 5 51 3 52
REMARK SMILES IDX 2 53 1 54 4 55 6 57
REMARK H PARENT 30 23 32 25 34 27 36 29 38 31 40 33 42 35 44 43 46 45 9 50
REMARK H PARENT 4 56 6 58
ROOT
ATOM      1  O   UNL     1      -3.415   5.034 -17.560  1.00  0.00    -0.341 OA
ENDROOT
BRANCH   1   2
ATOM      2  C   UNL     1      -3.862   4.507 -16.307  1.00  0.00    +0.282 C 
ATOM      3  C   UNL     1      -5.138   5.619 -13.871  1.00  0.00    +0.179 C 
ATOM      4  C   UNL     1      -5.630   5.784 -15.318  1.00  0.00    +0.198 C 
ATOM      5  C   UNL     1      -3.765   4.907 -13.841  1.00  0.00    +0.179 C 
ATOM      6  O   UNL     1      -5.275   4.663 -16.123  1.00  0.00    -0.347 OA
ATOM      7  C   UNL     1      -3.010   5.101 -15.157  1.00  0.00    +0.202 C 
BRANCH   3   8
ATOM      8  O   UNL     1      -5.004   6.878 -13.192  1.00  0.00    -0.341 OA
BRANCH   8   9
ATOM      9  C   UNL     1      -6.026   7.142 -12.224  1.00  0.00    +0.282 C 
ATOM     10  C   UNL     1      -4.201   6.262 -10.332  1.00  0.00    +0.179 C 
ATOM     11  C   UNL     1      -5.629   5.704 -10.327  1.00  0.00    +0.198 C 
ATOM     12  C   UNL     1      -4.232   7.786 -10.570  1.00  0.00    +0.179 C 
ATOM     13  O   UNL     1      -6.371   5.945 -11.525  1.00  0.00    -0.347 OA
ATOM     14  C   UNL     1      -5.536   8.236 -11.253  1.00  0.00    +0.202 C 
BRANCH  10  15
ATOM     15  O   UNL     1      -3.588   5.896  -9.087  1.00  0.00    -0.341 OA
BRANCH  15  16
ATOM     16  C   UNL     1      -4.369   6.243  -7.936  1.00  0.00    +0.282 C 
ATOM     17  C   UNL     1      -5.758   5.240  -6.296  1.00  0.00    +0.198 C 
ATOM     18  C   UNL     1      -4.701   5.248  -5.187  1.00  0.00    +0.171 C 
ATOM     19  O   UNL     1      -5.149   5.095  -7.576  1.00  0.00    -0.347 OA
ATOM     20  C   UNL     1      -3.301   5.547  -5.750  1.00  0.00    +0.179 C 
ATOM     21  C   UNL     1      -3.387   6.651  -6.807  1.00  0.00    +0.202 C 
BRANCH  18  22
ATOM     22  O   UNL     1      -5.032   6.232  -4.192  1.00  0.00    -0.388 OA
ATOM     23  H   UNL     1      -5.791   5.869  -3.688  1.00  0.00    +0.211 HD
ENDBRANCH  18  22
BRANCH  20  24
ATOM     24  O   UNL     1      -2.428   5.978  -4.690  1.00  0.00    -0.387 OA
ATOM     25  H   UNL     1      -2.947   5.896  -3.862  1.00  0.00    +0.211 HD
ENDBRANCH  20  24
BRANCH  21  26
ATOM     26  O   UNL     1      -3.847   7.853  -6.141  1.00  0.00    -0.385 OA
ATOM     27  H   UNL     1      -3.022   8.305  -5.868  1.00  0.00    +0.211 HD
ENDBRANCH  21  26
ENDBRANCH  15  16
ENDBRANCH  10  15
BRANCH  12  28
ATOM     28  O   UNL     1      -3.097   8.156 -11.382  1.00  0.00    -0.387 OA
ATOM     29  H   UNL     1      -3.440   8.264 -12.293  1.00  0.00    +0.211 HD
ENDBRANCH  12  28
BRANCH  14  30
ATOM     30  O   UNL     1      -5.320   9.492 -11.914  1.00  0.00    -0.385 OA
ATOM     31  H   UNL     1      -5.004   9.296 -12.815  1.00  0.00    +0.211 HD
ENDBRANCH  14  30
ENDBRANCH   8   9
ENDBRANCH   3   8
BRANCH   5  32
ATOM     32  O   UNL     1      -2.963   5.386 -12.751  1.00  0.00    -0.387 OA
ATOM     33  H   UNL     1      -2.887   6.355 -12.884  1.00  0.00    +0.211 HD
ENDBRANCH   5  32
BRANCH   7  34
ATOM     34  O   UNL     1      -2.763   6.509 -15.348  1.00  0.00    -0.385 OA
ATOM     35  H   UNL     1      -1.792   6.597 -15.414  1.00  0.00    +0.211 HD
ENDBRANCH   7  34
ENDBRANCH   1   2
BRANCH   1  36
ATOM     36  C   UNL     1      -3.055   4.028 -18.509  1.00  0.00    +0.179 C 
ATOM     37  C   UNL     1      -3.159   2.640 -17.879  1.00  0.00    +0.198 C 
ATOM     38  C   UNL     1      -1.610   4.266 -18.994  1.00  0.00    +0.179 C 
ATOM     39  O   UNL     1      -2.899   1.588 -18.815  1.00  0.00    -0.347 OA
ATOM     40  C   UNL     1      -0.890   2.952 -19.341  1.00  0.00    +0.202 C 
ATOM     41  C   UNL     1      -1.915   1.899 -19.813  1.00  0.00    +0.282 C 
BRANCH  38  42
ATOM     42  O   UNL     1      -0.828   4.958 -17.998  1.00  0.00    -0.387 OA
ATOM     43  H   UNL     1      -0.582   4.277 -17.335  1.00  0.00    +0.211 HD
ENDBRANCH  38  42
BRANCH  40  44
ATOM     44  O   UNL     1      -0.178   2.486 -18.174  1.00  0.00    -0.385 OA
ATOM     45  H   UNL     1       0.168   1.606 -18.434  1.00  0.00    +0.211 HD
ENDBRANCH  40  44
BRANCH  41  46
ATOM     46  O   UNL     1      -1.221   0.712 -20.197  1.00  0.00    -0.341 OA
BRANCH  46  47
ATOM     47  C   UNL     1      -1.503  -0.431 -19.372  1.00  0.00    +0.178 C 
BRANCH  47  48
ATOM     48  C   UNL     1      -2.239  -1.467 -20.228  1.00  0.00    +0.191 C 
BRANCH  48  49
ATOM     49  O   UNL     1      -2.412  -2.686 -19.516  1.00  0.00    -0.394 OA
ATOM     50  H   UNL     1      -3.372  -2.842 -19.459  1.00  0.00    +0.210 HD
ENDBRANCH  48  49
ENDBRANCH  47  48
BRANCH  47  51
ATOM     51  C   UNL     1      -0.188  -0.957 -18.736  1.00  0.00    +0.181 C 
BRANCH  51  52
ATOM     52  C   UNL     1       1.052  -0.842 -19.639  1.00  0.00    +0.209 C 
BRANCH  52  53
ATOM     53  C   UNL     1       2.136  -0.058 -18.911  1.00  0.00    +0.258 C 
ATOM     54  O   UNL     1       2.257   1.163 -19.027  1.00  0.00    -0.300 OA
ENDBRANCH  52  53
BRANCH  52  55
ATOM     55  O   UNL     1       1.581  -2.120 -19.992  1.00  0.00    -0.383 OA
ATOM     56  H   UNL     1       1.569  -2.652 -19.169  1.00  0.00    +0.211 HD
ENDBRANCH  52  55
ENDBRANCH  51  52
BRANCH  51  57
ATOM     57  O   UNL     1       0.072  -0.221 -17.520  1.00  0.00    -0.387 OA
ATOM     58  H   UNL     1       0.637  -0.794 -16.954  1.00  0.00    +0.211 HD
ENDBRANCH  51  57
ENDBRANCH  47  51
ENDBRANCH  46  47
ENDBRANCH  41  46
ENDBRANCH   1  36
TORSDOF 24
ENDMDL
MODEL 2
REMARK VINA RESULT:    -6.951      3.044     12.548
REMARK INTER + INTRA:         -16.563
REMARK INTER:                 -14.276
REMARK INTRA:                  -2.287
REMARK UNBOUND:                -2.298
REMARK SMILES O=C[C@@H](O)[C@@H](O)[C@H](CO)O[C@H]1OC[C@@H](O[C@@H]2OC[C@H](O[C@H]3OC[C@H](O[C@H]4OC[C@H](O)[C@H](O)[C@@H]4O)[C@@H](O)[C@H]3O)[C@H](O)[C@@H]2O)[C@@H](O)[C@H]1O
REMARK SMILES IDX 15 1 16 2 19 3 18 4 39 5 17 6 41 7 20 8 21 9 24 10 23 11
REMARK SMILES IDX 35 12 22 13 37 14 25 15 26 16 28 17 29 18 27 19 31 20 33 21
REMARK SMILES IDX 30 22 32 24 34 26 36 28 38 30 40 32 42 34 14 36 13 37 43 38
REMARK SMILES IDX 12 39 45 40 11 41 44 42 46 44 10 46 7 47 8 48 9 49 5 51 3 52
REMARK SMILES IDX 2 53 1 54 4 55 6 57
REMARK H PARENT 30 23 32 25 34 27 36 29 38 31 40 33 42 35 44 43 46 45 9 50
REMARK H PARENT 4 56 6 58
ROOT
ATOM      1  O   UNL     1      -3.143   4.398 -15.054  1.00  0.00    -0.341 OA
ENDROOT
BRANCH   1   2
ATOM      2  C   UNL     1      -3.087   4.399 -16.483  1.00  0.00    +0.282 C 
ATOM      3  C   UNL     1      -2.422   2.412 -18.583  1.00  0.00    +0.179 C 
ATOM      4  C   UNL     1      -3.444   2.237 -17.448  1.00  0.00    +0.198 C 
ATOM      5  C   UNL     1      -1.639   3.735 -18.410  1.00  0.00    +0.179 C 
ATOM      6  O   UNL     1      -4.021   3.482 -17.067  1.00  0.00    -0.347 OA
ATOM      7  C   UNL     1      -1.624   4.185 -16.948  1.00  0.00    +0.202 C 
BRANCH   3   8
ATOM      8  O   UNL     1      -1.472   1.334 -18.635  1.00  0.00    -0.341 OA
BRANCH   8   9
ATOM      9  C   UNL     1      -1.544   0.538 -19.824  1.00  0.00    +0.282 C 
ATOM     10  C   UNL     1       1.224   0.454 -19.710  1.00  0.00    +0.179 C 
ATOM     11  C   UNL     1       0.529   0.825 -21.025  1.00  0.00    +0.198 C 
ATOM     12  C   UNL     1       0.493  -0.730 -19.044  1.00  0.00    +0.179 C 
ATOM     13  O   UNL     1      -0.850   1.179 -20.895  1.00  0.00    -0.347 OA
ATOM     14  C   UNL     1      -0.959  -0.860 -19.534  1.00  0.00    +0.202 C 
BRANCH  10  15
ATOM     15  O   UNL     1       2.599   0.173 -20.011  1.00  0.00    -0.341 OA
BRANCH  15  16
ATOM     16  C   UNL     1       2.947  -1.211 -19.881  1.00  0.00    +0.282 C 
ATOM     17  C   UNL     1       4.213  -2.892 -20.975  1.00  0.00    +0.198 C 
ATOM     18  C   UNL     1       5.401  -2.830 -20.009  1.00  0.00    +0.171 C 
ATOM     19  O   UNL     1       3.592  -1.616 -21.096  1.00  0.00    -0.347 OA
ATOM     20  C   UNL     1       5.331  -1.580 -19.114  1.00  0.00    +0.179 C 
ATOM     21  C   UNL     1       3.890  -1.346 -18.655  1.00  0.00    +0.202 C 
BRANCH  18  22
ATOM     22  O   UNL     1       5.430  -4.004 -19.180  1.00  0.00    -0.388 OA
ATOM     23  H   UNL     1       5.399  -4.772 -19.790  1.00  0.00    +0.211 HD
ENDBRANCH  18  22
BRANCH  20  24
ATOM     24  O   UNL     1       6.169  -1.757 -17.958  1.00  0.00    -0.387 OA
ATOM     25  H   UNL     1       6.334  -2.720 -17.888  1.00  0.00    +0.211 HD
ENDBRANCH  20  24
BRANCH  21  26
ATOM     26  O   UNL     1       3.505  -2.479 -17.839  1.00  0.00    -0.385 OA
ATOM     27  H   UNL     1       4.086  -3.204 -18.149  1.00  0.00    +0.211 HD
ENDBRANCH  21  26
ENDBRANCH  15  16
ENDBRANCH  10  15
BRANCH  12  28
ATOM     28  O   UNL     1       0.517  -0.548 -17.612  1.00  0.00    -0.387 OA
ATOM     29  H   UNL     1       1.298  -1.044 -17.290  1.00  0.00    +0.211 HD
ENDBRANCH  12  28
BRANCH  14  30
ATOM     30  O   UNL     1      -1.729  -1.580 -18.561  1.00  0.00    -0.385 OA
ATOM     31  H   UNL     1      -1.100  -2.027 -17.965  1.00  0.00    +0.211 HD
ENDBRANCH  14  30
ENDBRANCH   8   9
ENDBRANCH   3   8
BRANCH   5  32
ATOM     32  O   UNL     1      -0.291   3.599 -18.885  1.00  0.00    -0.387 OA
ATOM     33  H   UNL     1       0.255   3.421 -18.088  1.00  0.00    +0.211 HD
ENDBRANCH   5  32
BRANCH   7  34
ATOM     34  O   UNL     1      -0.955   3.181 -16.159  1.00  0.00    -0.385 OA
ATOM     35  H   UNL     1      -1.592   2.445 -16.079  1.00  0.00    +0.211 HD
ENDBRANCH   7  34
ENDBRANCH   1   2
BRANCH   1  36
ATOM     36  C   UNL     1      -3.498   5.664 -14.493  1.00  0.00    +0.179 C 
ATOM     37  C   UNL     1      -2.250   6.393 -13.996  1.00  0.00    +0.198 C 
ATOM     38  C   UNL     1      -4.474   5.454 -13.317  1.00  0.00    +0.179 C 
ATOM     39  O   UNL     1      -2.539   7.709 -13.508  1.00  0.00    -0.347 OA
ATOM     40  C   UNL     1      -4.309   6.527 -12.227  1.00  0.00    +0.202 C 
ATOM     41  C   UNL     1      -3.811   7.845 -12.857  1.00  0.00    +0.282 C 
BRANCH  38  42
ATOM     42  O   UNL     1      -4.293   4.160 -12.706  1.00  0.00    -0.387 OA
ATOM     43  H   UNL     1      -3.959   4.339 -11.800  1.00  0.00    +0.211 HD
ENDBRANCH  38  42
BRANCH  40  44
ATOM     44  O   UNL     1      -3.374   6.047 -11.236  1.00  0.00    -0.385 OA
ATOM     45  H   UNL     1      -3.901   5.437 -10.678  1.00  0.00    +0.211 HD
ENDBRANCH  40  44
BRANCH  41  46
ATOM     46  O   UNL     1      -3.731   8.845 -11.842  1.00  0.00    -0.341 OA
BRANCH  46  47
ATOM     47  C   UNL     1      -4.305  10.110 -12.211  1.00  0.00    +0.178 C 
BRANCH  47  48
ATOM     48  C   UNL     1      -5.733   9.860 -12.709  1.00  0.00    +0.191 C 
BRANCH  48  49
ATOM     49  O   UNL     1      -6.636   9.727 -11.620  1.00  0.00    -0.394 OA
ATOM     50  H   UNL     1      -6.229   9.101 -10.994  1.00  0.00    +0.210 HD
ENDBRANCH  48  49
ENDBRANCH  47  48
BRANCH  47  51
ATOM     51  C   UNL     1      -4.218  11.095 -11.015  1.00  0.00    +0.181 C 
BRANCH  51  52
ATOM     52  C   UNL     1      -2.810  11.653 -10.744  1.00  0.00    +0.209 C 
BRANCH  52  53
ATOM     53  C   UNL     1      -2.727  12.137  -9.302  1.00  0.00    +0.258 C 
ATOM     54  O   UNL     1      -1.799  12.838  -8.894  1.00  0.00    -0.300 OA
ENDBRANCH  52  53
BRANCH  52  55
ATOM     55  O   UNL     1      -1.794  10.671 -10.948  1.00  0.00    -0.383 OA
ATOM     56  H   UNL     1      -2.264   9.834 -11.143  1.00  0.00    +0.211 HD
ENDBRANCH  52  55
ENDBRANCH  51  52
BRANCH  51  57
ATOM     57  O   UNL     1      -5.103  12.211 -11.260  1.00  0.00    -0.387 OA
ATOM     58  H   UNL     1      -5.845  11.872 -11.808  1.00  0.00    +0.211 HD
ENDBRANCH  51  57
ENDBRANCH  47  51
ENDBRANCH  46  47
ENDBRANCH  41  46
ENDBRANCH   1  36
TORSDOF 24
ENDMDL
MODEL 3
REMARK VINA RESULT:    -6.922      6.751     10.789
REMARK INTER + INTRA:         -16.504
REMARK INTER:                 -13.470
REMARK INTRA:                  -3.033
REMARK UNBOUND:                -2.298
REMARK SMILES O=C[C@@H](O)[C@@H](O)[C@H](CO)O[C@H]1OC[C@@H](O[C@@H]2OC[C@H](O[C@H]3OC[C@H](O[C@H]4OC[C@H](O)[C@H](O)[C@@H]4O)[C@@H](O)[C@H]3O)[C@H](O)[C@@H]2O)[C@@H](O)[C@H]1O
REMARK SMILES IDX 15 1 16 2 19 3 18 4 39 5 17 6 41 7 20 8 21 9 24 10 23 11
REMARK SMILES IDX 35 12 22 13 37 14 25 15 26 16 28 17 29 18 27 19 31 20 33 21
REMARK SMILES IDX 30 22 32 24 34 26 36 28 38 30 40 32 42 34 14 36 13 37 43 38
REMARK SMILES IDX 12 39 45 40 11 41 44 42 46 44 10 46 7 47 8 48 9 49 5 51 3 52
REMARK SMILES IDX 2 53 1 54 4 55 6 57
REMARK H PARENT 30 23 32 25 34 27 36 29 38 31 40 33 42 35 44 43 46 45 9 50
REMARK H PARENT 4 56 6 58
ROOT
ATOM      1  O   UNL     1     -12.105   7.040 -10.999  1.00  0.00    -0.341 OA
ENDROOT
BRANCH   1   2
ATOM      2  C   UNL     1     -11.908   5.961 -10.081  1.00  0.00    +0.282 C 
ATOM      3  C   UNL     1     -13.572   4.559  -8.065  1.00  0.00    +0.179 C 
ATOM      4  C   UNL     1     -13.928   4.794  -9.542  1.00  0.00    +0.198 C 
ATOM      5  C   UNL     1     -12.263   5.298  -7.697  1.00  0.00    +0.179 C 
ATOM      6  O   UNL     1     -12.762   4.845 -10.360  1.00  0.00    -0.347 OA
ATOM      7  C   UNL     1     -12.017   6.487  -8.627  1.00  0.00    +0.202 C 
BRANCH   3   8
ATOM      8  O   UNL     1     -14.606   5.011  -7.175  1.00  0.00    -0.341 OA
BRANCH   8   9
ATOM      9  C   UNL     1     -15.646   4.054  -6.941  1.00  0.00    +0.282 C 
ATOM     10  C   UNL     1     -14.057   3.110  -4.875  1.00  0.00    +0.179 C 
ATOM     11  C   UNL     1     -14.646   2.125  -5.891  1.00  0.00    +0.198 C 
ATOM     12  C   UNL     1     -15.121   4.153  -4.474  1.00  0.00    +0.179 C 
ATOM     13  O   UNL     1     -15.144   2.726  -7.090  1.00  0.00    -0.347 OA
ATOM     14  C   UNL     1     -16.233   4.276  -5.531  1.00  0.00    +0.202 C 
BRANCH  10  15
ATOM     15  O   UNL     1     -13.567   2.345  -3.764  1.00  0.00    -0.341 OA
BRANCH  15  16
ATOM     16  C   UNL     1     -12.202   1.933  -3.904  1.00  0.00    +0.282 C 
ATOM     17  C   UNL     1      -9.999   2.772  -3.643  1.00  0.00    +0.198 C 
ATOM     18  C   UNL     1      -9.738   2.079  -2.302  1.00  0.00    +0.171 C 
ATOM     19  O   UNL     1     -11.378   3.100  -3.784  1.00  0.00    -0.347 OA
ATOM     20  C   UNL     1     -11.041   1.531  -1.692  1.00  0.00    +0.179 C 
ATOM     21  C   UNL     1     -11.905   0.899  -2.786  1.00  0.00    +0.202 C 
BRANCH  18  22
ATOM     22  O   UNL     1      -8.805   0.998  -2.474  1.00  0.00    -0.388 OA
ATOM     23  H   UNL     1      -8.198   1.271  -3.195  1.00  0.00    +0.211 HD
ENDBRANCH  18  22
BRANCH  20  24
ATOM     24  O   UNL     1     -10.736   0.535  -0.699  1.00  0.00    -0.387 OA
ATOM     25  H   UNL     1     -11.192   0.822   0.121  1.00  0.00    +0.211 HD
ENDBRANCH  20  24
BRANCH  21  26
ATOM     26  O   UNL     1     -11.173  -0.231  -3.317  1.00  0.00    -0.385 OA
ATOM     27  H   UNL     1     -11.102  -0.848  -2.559  1.00  0.00    +0.211 HD
ENDBRANCH  21  26
ENDBRANCH  15  16
ENDBRANCH  10  15
BRANCH  12  28
ATOM     28  O   UNL     1     -14.476   5.430  -4.284  1.00  0.00    -0.387 OA
ATOM     29  H   UNL     1     -14.590   5.651  -3.337  1.00  0.00    +0.211 HD
ENDBRANCH  12  28
BRANCH  14  30
ATOM     30  O   UNL     1     -16.872   5.555  -5.404  1.00  0.00    -0.385 OA
ATOM     31  H   UNL     1     -17.780   5.396  -5.086  1.00  0.00    +0.211 HD
ENDBRANCH  14  30
ENDBRANCH   8   9
ENDBRANCH   3   8
BRANCH   5  32
ATOM     32  O   UNL     1     -12.297   5.752  -6.335  1.00  0.00    -0.387 OA
ATOM     33  H   UNL     1     -12.980   5.206  -5.890  1.00  0.00    +0.211 HD
ENDBRANCH   5  32
BRANCH   7  34
ATOM     34  O   UNL     1     -13.100   7.427  -8.479  1.00  0.00    -0.385 OA
ATOM     35  H   UNL     1     -13.687   7.271  -9.244  1.00  0.00    +0.211 HD
ENDBRANCH   7  34
ENDBRANCH   1   2
BRANCH   1  36
ATOM     36  C   UNL     1     -11.085   7.139 -11.996  1.00  0.00    +0.179 C 
ATOM     37  C   UNL     1     -10.132   5.948 -11.901  1.00  0.00    +0.198 C 
ATOM     38  C   UNL     1     -10.293   8.448 -11.799  1.00  0.00    +0.179 C 
ATOM     39  O   UNL     1      -9.143   5.949 -12.937  1.00  0.00    -0.347 OA
ATOM     40  C   UNL     1      -8.822   8.307 -12.225  1.00  0.00    +0.202 C 
ATOM     41  C   UNL     1      -8.697   7.251 -13.344  1.00  0.00    +0.282 C 
BRANCH  38  42
ATOM     42  O   UNL     1     -10.325   8.881 -10.423  1.00  0.00    -0.387 OA
ATOM     43  H   UNL     1      -9.840   8.193  -9.918  1.00  0.00    +0.211 HD
ENDBRANCH  38  42
BRANCH  40  44
ATOM     44  O   UNL     1      -8.036   7.929 -11.074  1.00  0.00    -0.385 OA
ATOM     45  H   UNL     1      -7.215   7.549 -11.452  1.00  0.00    +0.211 HD
ENDBRANCH  40  44
BRANCH  41  46
ATOM     46  O   UNL     1      -7.337   7.185 -13.772  1.00  0.00    -0.341 OA
BRANCH  46  47
ATOM     47  C   UNL     1      -6.948   5.912 -14.313  1.00  0.00    +0.178 C 
BRANCH  47  48
ATOM     48  C   UNL     1      -7.136   5.962 -15.833  1.00  0.00    +0.191 C 
BRANCH  48  49
ATOM     49  O   UNL     1      -6.282   6.934 -16.421  1.00  0.00    -0.394 OA
ATOM     50  H   UNL     1      -6.331   7.726 -15.857  1.00  0.00    +0.210 HD
ENDBRANCH  48  49
ENDBRANCH  47  48
BRANCH  47  51
ATOM     51  C   UNL     1      -5.500   5.573 -13.867  1.00  0.00    +0.181 C 
BRANCH  51  52
ATOM     52  C   UNL     1      -5.392   4.931 -12.474  1.00  0.00    +0.209 C 
BRANCH  52  53
ATOM     53  C   UNL     1      -3.994   5.166 -11.916  1.00  0.00    +0.258 C 
ATOM     54  O   UNL     1      -2.985   4.700 -12.447  1.00  0.00    -0.300 OA
ENDBRANCH  52  53
BRANCH  52  55
ATOM     55  O   UNL     1      -6.340   5.474 -11.555  1.00  0.00    -0.383 OA
ATOM     56  H   UNL     1      -6.156   6.436 -11.517  1.00  0.00    +0.211 HD
ENDBRANCH  52  55
ENDBRANCH  51  52
BRANCH  51  57
ATOM     57  O   UNL     1      -4.914   4.664 -14.827  1.00  0.00    -0.387 OA
ATOM     58  H   UNL     1      -4.956   3.765 -14.432  1.00  0.00    +0.211 HD
ENDBRANCH  51  57
ENDBRANCH  47  51
ENDBRANCH  46  47
ENDBRANCH  41  46
ENDBRANCH   1  36
TORSDOF 24
ENDMDL
MODEL 4
REMARK VINA RESULT:    -6.811      2.724     12.467
REMARK INTER + INTRA:         -16.276
REMARK INTER:                 -13.240
REMARK INTRA:                  -3.036
REMARK UNBOUND:                -2.298
REMARK SMILES O=C[C@@H](O)[C@@H](O)[C@H](CO)O[C@H]1OC[C@@H](O[C@@H]2OC[C@H](O[C@H]3OC[C@H](O[C@H]4OC[C@H](O)[C@H](O)[C@@H]4O)[C@@H](O)[C@H]3O)[C@H](O)[C@@H]2O)[C@@H](O)[C@H]1O
REMARK SMILES IDX 15 1 16 2 19 3 18 4 39 5 17 6 41 7 20 8 21 9 24 10 23 11
REMARK SMILES IDX 35 12 22 13 37 14 25 15 26 16 28 17 29 18 27 19 31 20 33 21
REMARK SMILES IDX 30 22 32 24 34 26 36 28 38 30 40 32 42 34 14 36 13 37 43 38
REMARK SMILES IDX 12 39 45 40 11 41 44 42 46 44 10 46 7 47 8 48 9 49 5 51 3 52
REMARK SMILES IDX 2 53 1 54 4 55 6 57
REMARK H PARENT 30 23 32 25 34 27 36 29 38 31 40 33 42 35 44 43 46 45 9 50
REMARK H PARENT 4 56 6 58
ROOT
ATOM      1  O   UNL     1      -3.192   2.815 -16.983  1.00  0.00    -0.341 OA
ENDROOT
BRANCH   1   2
ATOM      2  C   UNL     1      -2.769   2.859 -18.349  1.00  0.00    +0.282 C 
ATOM      3  C   UNL     1      -1.152   1.121 -20.127  1.00  0.00    +0.179 C 
ATOM      4  C   UNL     1      -2.366   0.693 -19.287  1.00  0.00    +0.198 C 
ATOM      5  C   UNL     1      -0.760   2.584 -19.812  1.00  0.00    +0.179 C 
ATOM      6  O   UNL     1      -3.289   1.765 -19.116  1.00  0.00    -0.347 OA
ATOM      7  C   UNL     1      -1.226   2.994 -18.414  1.00  0.00    +0.202 C 
BRANCH   3   8
ATOM      8  O   UNL     1      -0.004   0.290 -19.892  1.00  0.00    -0.341 OA
BRANCH   8   9
ATOM      9  C   UNL     1       0.454  -0.429 -21.043  1.00  0.00    +0.282 C 
ATOM     10  C   UNL     1       2.870  -0.663 -19.705  1.00  0.00    +0.179 C 
ATOM     11  C   UNL     1       2.851  -0.179 -21.160  1.00  0.00    +0.198 C 
ATOM     12  C   UNL     1       1.895  -1.845 -19.530  1.00  0.00    +0.179 C 
ATOM     13  O   UNL     1       1.569   0.237 -21.636  1.00  0.00    -0.347 OA
ATOM     14  C   UNL     1       0.818  -1.871 -20.630  1.00  0.00    +0.202 C 
BRANCH  10  15
ATOM     15  O   UNL     1       4.228  -0.996 -19.377  1.00  0.00    -0.341 OA
BRANCH  15  16
ATOM     16  C   UNL     1       4.495  -2.404 -19.387  1.00  0.00    +0.282 C 
ATOM     17  C   UNL     1       6.056  -3.965 -20.253  1.00  0.00    +0.198 C 
ATOM     18  C   UNL     1       6.818  -4.152 -18.937  1.00  0.00    +0.171 C 
ATOM     19  O   UNL     1       5.529  -2.645 -20.350  1.00  0.00    -0.347 OA
ATOM     20  C   UNL     1       6.441  -3.068 -17.913  1.00  0.00    +0.179 C 
ATOM     21  C   UNL     1       4.933  -2.810 -17.955  1.00  0.00    +0.202 C 
BRANCH  18  22
ATOM     22  O   UNL     1       6.538  -5.448 -18.380  1.00  0.00    -0.388 OA
ATOM     23  H   UNL     1       6.322  -5.299 -17.434  1.00  0.00    +0.211 HD
ENDBRANCH  18  22
BRANCH  20  24
ATOM     24  O   UNL     1       6.807  -3.496 -16.588  1.00  0.00    -0.387 OA
ATOM     25  H   UNL     1       6.000  -3.895 -16.200  1.00  0.00    +0.211 HD
ENDBRANCH  20  24
BRANCH  21  26
ATOM     26  O   UNL     1       4.273  -4.032 -17.547  1.00  0.00    -0.385 OA
ATOM     27  H   UNL     1       4.912  -4.458 -16.940  1.00  0.00    +0.211 HD
ENDBRANCH  21  26
ENDBRANCH  15  16
ENDBRANCH  10  15
BRANCH  12  28
ATOM     28  O   UNL     1       1.272  -1.750 -18.231  1.00  0.00    -0.387 OA
ATOM     29  H   UNL     1       0.380  -2.142 -18.331  1.00  0.00    +0.211 HD
ENDBRANCH  12  28
BRANCH  14  30
ATOM     30  O   UNL     1      -0.322  -2.607 -20.164  1.00  0.00    -0.385 OA
ATOM     31  H   UNL     1      -0.675  -2.136 -19.386  1.00  0.00    +0.211 HD
ENDBRANCH  14  30
ENDBRANCH   8   9
ENDBRANCH   3   8
BRANCH   5  32
ATOM     32  O   UNL     1       0.659   2.769 -19.919  1.00  0.00    -0.387 OA
ATOM     33  H   UNL     1       1.018   2.594 -19.022  1.00  0.00    +0.211 HD
ENDBRANCH   5  32
BRANCH   7  34
ATOM     34  O   UNL     1      -0.576   2.153 -17.440  1.00  0.00    -0.385 OA
ATOM     35  H   UNL     1      -1.291   1.818 -16.865  1.00  0.00    +0.211 HD
ENDBRANCH   7  34
ENDBRANCH   1   2
BRANCH   1  36
ATOM     36  C   UNL     1      -3.090   4.072 -16.311  1.00  0.00    +0.179 C 
ATOM     37  C   UNL     1      -2.449   3.889 -14.936  1.00  0.00    +0.198 C 
ATOM     38  C   UNL     1      -4.496   4.686 -16.145  1.00  0.00    +0.179 C 
ATOM     39  O   UNL     1      -2.239   5.133 -14.256  1.00  0.00    -0.347 OA
ATOM     40  C   UNL     1      -4.614   5.531 -14.865  1.00  0.00    +0.202 C 
ATOM     41  C   UNL     1      -3.239   6.132 -14.503  1.00  0.00    +0.282 C 
BRANCH  38  42
ATOM     42  O   UNL     1      -5.515   3.666 -16.107  1.00  0.00    -0.387 OA
ATOM     43  H   UNL     1      -5.111   2.906 -15.633  1.00  0.00    +0.211 HD
ENDBRANCH  38  42
BRANCH  40  44
ATOM     44  O   UNL     1      -5.104   4.694 -13.795  1.00  0.00    -0.385 OA
ATOM     45  H   UNL     1      -5.734   5.265 -13.306  1.00  0.00    +0.211 HD
ENDBRANCH  40  44
BRANCH  41  46
ATOM     46  O   UNL     1      -3.384   6.967 -13.354  1.00  0.00    -0.341 OA
BRANCH  46  47
ATOM     47  C   UNL     1      -2.461   6.676 -12.291  1.00  0.00    +0.178 C 
BRANCH  47  48
ATOM     48  C   UNL     1      -1.630   7.936 -12.023  1.00  0.00    +0.191 C 
BRANCH  48  49
ATOM     49  O   UNL     1      -1.690   8.830 -13.127  1.00  0.00    -0.394 OA
ATOM     50  H   UNL     1      -2.632   9.027 -13.275  1.00  0.00    +0.210 HD
ENDBRANCH  48  49
ENDBRANCH  47  48
BRANCH  47  51
ATOM     51  C   UNL     1      -3.236   6.156 -11.051  1.00  0.00    +0.181 C 
BRANCH  51  52
ATOM     52  C   UNL     1      -4.475   6.986 -10.673  1.00  0.00    +0.209 C 
BRANCH  52  53
ATOM     53  C   UNL     1      -5.684   6.066 -10.560  1.00  0.00    +0.258 C 
ATOM     54  O   UNL     1      -6.440   5.851 -11.509  1.00  0.00    -0.300 OA
ENDBRANCH  52  53
BRANCH  52  55
ATOM     55  O   UNL     1      -4.309   7.666  -9.429  1.00  0.00    -0.383 OA
ATOM     56  H   UNL     1      -3.342   7.766  -9.305  1.00  0.00    +0.211 HD
ENDBRANCH  52  55
ENDBRANCH  51  52
BRANCH  51  57
ATOM     57  O   UNL     1      -3.664   4.798 -11.300  1.00  0.00    -0.387 OA
ATOM     58  H   UNL     1      -2.898   4.325 -11.695  1.00  0.00    +0.211 HD
ENDBRANCH  51  57
ENDBRANCH  47  51
ENDBRANCH  46  47
ENDBRANCH  41  46
ENDBRANCH   1  36
TORSDOF 24
ENDMDL
MODEL 5
REMARK VINA RESULT:    -6.720      3.038     12.439
REMARK INTER + INTRA:         -16.089
REMARK INTER:                 -13.932
REMARK INTRA:                  -2.157
REMARK UNBOUND:                -2.298
REMARK SMILES O=C[C@@H](O)[C@@H](O)[C@H](CO)O[C@H]1OC[C@@H](O[C@@H]2OC[C@H](O[C@H]3OC[C@H](O[C@H]4OC[C@H](O)[C@H](O)[C@@H]4O)[C@@H](O)[C@H]3O)[C@H](O)[C@@H]2O)[C@@H](O)[C@H]1O
REMARK SMILES IDX 15 1 16 2 19 3 18 4 39 5 17 6 41 7 20 8 21 9 24 10 23 11
REMARK SMILES IDX 35 12 22 13 37 14 25 15 26 16 28 17 29 18 27 19 31 20 33 21
REMARK SMILES IDX 30 22 32 24 34 26 36 28 38 30 40 32 42 34 14 36 13 37 43 38
REMARK SMILES IDX 12 39 45 40 11 41 44 42 46 44 10 46 7 47 8 48 9 49 5 51 3 52
REMARK SMILES IDX 2 53 1 54 4 55 6 57
REMARK H PARENT 30 23 32 25 34 27 36 29 38 31 40 33 42 35 44 43 46 45 9 50
REMARK H PARENT 4 56 6 58
ROOT
ATOM      1  O   UNL     1      -3.130   4.457 -15.026  1.00  0.00    -0.341 OA
ENDROOT
BRANCH   1   2
ATOM      2  C   UNL     1      -3.062   4.464 -16.454  1.00  0.00    +0.282 C 
ATOM      3  C   UNL     1      -2.420   2.476 -18.559  1.00  0.00    +0.179 C 
ATOM      4  C   UNL     1      -3.454   2.314 -17.433  1.00  0.00    +0.198 C 
ATOM      5  C   UNL     1      -1.612   3.782 -18.374  1.00  0.00    +0.179 C 
ATOM      6  O   UNL     1      -4.010   3.569 -17.050  1.00  0.00    -0.347 OA
ATOM      7  C   UNL     1      -1.600   4.224 -16.909  1.00  0.00    +0.202 C 
BRANCH   3   8
ATOM      8  O   UNL     1      -1.491   1.380 -18.610  1.00  0.00    -0.341 OA
BRANCH   8   9
ATOM      9  C   UNL     1      -1.564   0.596 -19.806  1.00  0.00    +0.282 C 
ATOM     10  C   UNL     1       1.204   0.508 -19.694  1.00  0.00    +0.179 C 
ATOM     11  C   UNL     1       0.509   0.893 -21.005  1.00  0.00    +0.198 C 
ATOM     12  C   UNL     1       0.473  -0.682 -19.040  1.00  0.00    +0.179 C 
ATOM     13  O   UNL     1      -0.870   1.247 -20.871  1.00  0.00    -0.347 OA
ATOM     14  C   UNL     1      -0.980  -0.806 -19.531  1.00  0.00    +0.202 C 
BRANCH  10  15
ATOM     15  O   UNL     1       2.579   0.229 -19.999  1.00  0.00    -0.341 OA
BRANCH  15  16
ATOM     16  C   UNL     1       2.926  -1.157 -19.882  1.00  0.00    +0.282 C 
ATOM     17  C   UNL     1       4.197  -2.826 -20.989  1.00  0.00    +0.198 C 
ATOM     18  C   UNL     1       5.380  -2.775 -20.016  1.00  0.00    +0.171 C 
ATOM     19  O   UNL     1       3.576  -1.549 -21.099  1.00  0.00    -0.347 OA
ATOM     20  C   UNL     1       5.306  -1.535 -19.108  1.00  0.00    +0.179 C 
ATOM     21  C   UNL     1       3.862  -1.305 -18.654  1.00  0.00    +0.202 C 
BRANCH  18  22
ATOM     22  O   UNL     1       5.404  -3.959 -19.200  1.00  0.00    -0.388 OA
ATOM     23  H   UNL     1       4.523  -4.014 -18.771  1.00  0.00    +0.211 HD
ENDBRANCH  18  22
BRANCH  20  24
ATOM     24  O   UNL     1       6.139  -1.725 -17.950  1.00  0.00    -0.387 OA
ATOM     25  H   UNL     1       7.042  -1.892 -18.292  1.00  0.00    +0.211 HD
ENDBRANCH  20  24
BRANCH  21  26
ATOM     26  O   UNL     1       3.474  -2.447 -17.852  1.00  0.00    -0.385 OA
ATOM     27  H   UNL     1       2.800  -2.904 -18.397  1.00  0.00    +0.211 HD
ENDBRANCH  21  26
ENDBRANCH  15  16
ENDBRANCH  10  15
BRANCH  12  28
ATOM     28  O   UNL     1       0.497  -0.515 -17.606  1.00  0.00    -0.387 OA
ATOM     29  H   UNL     1       0.435  -1.416 -17.228  1.00  0.00    +0.211 HD
ENDBRANCH  12  28
BRANCH  14  30
ATOM     30  O   UNL     1      -1.751  -1.535 -18.565  1.00  0.00    -0.385 OA
ATOM     31  H   UNL     1      -1.456  -1.248 -17.681  1.00  0.00    +0.211 HD
ENDBRANCH  14  30
ENDBRANCH   8   9
ENDBRANCH   3   8
BRANCH   5  32
ATOM     32  O   UNL     1      -0.264   3.622 -18.839  1.00  0.00    -0.387 OA
ATOM     33  H   UNL     1       0.303   4.050 -18.161  1.00  0.00    +0.211 HD
ENDBRANCH   5  32
BRANCH   7  34
ATOM     34  O   UNL     1      -0.957   3.203 -16.120  1.00  0.00    -0.385 OA
ATOM     35  H   UNL     1      -1.656   2.553 -15.915  1.00  0.00    +0.211 HD
ENDBRANCH   7  34
ENDBRANCH   1   2
BRANCH   1  36
ATOM     36  C   UNL     1      -3.392   5.742 -14.457  1.00  0.00    +0.179 C 
ATOM     37  C   UNL     1      -2.101   6.360 -13.922  1.00  0.00    +0.198 C 
ATOM     38  C   UNL     1      -4.411   5.602 -13.308  1.00  0.00    +0.179 C 
ATOM     39  O   UNL     1      -2.291   7.690 -13.424  1.00  0.00    -0.347 OA
ATOM     40  C   UNL     1      -4.185   6.646 -12.201  1.00  0.00    +0.202 C 
ATOM     41  C   UNL     1      -3.563   7.924 -12.802  1.00  0.00    +0.282 C 
BRANCH  38  42
ATOM     42  O   UNL     1      -4.353   4.291 -12.709  1.00  0.00    -0.387 OA
ATOM     43  H   UNL     1      -4.214   4.444 -11.749  1.00  0.00    +0.211 HD
ENDBRANCH  38  42
BRANCH  40  44
ATOM     44  O   UNL     1      -3.318   6.079 -11.194  1.00  0.00    -0.385 OA
ATOM     45  H   UNL     1      -3.921   5.577 -10.606  1.00  0.00    +0.211 HD
ENDBRANCH  40  44
BRANCH  41  46
ATOM     46  O   UNL     1      -3.426   8.904 -11.772  1.00  0.00    -0.341 OA
BRANCH  46  47
ATOM     47  C   UNL     1      -4.503   9.853 -11.711  1.00  0.00    +0.178 C 
BRANCH  47  48
ATOM     48  C   UNL     1      -3.967  11.145 -11.085  1.00  0.00    +0.191 C 
BRANCH  48  49
ATOM     49  O   UNL     1      -4.943  12.177 -11.132  1.00  0.00    -0.394 OA
ATOM     50  H   UNL     1      -4.467  13.017 -10.998  1.00  0.00    +0.210 HD
ENDBRANCH  48  49
ENDBRANCH  47  48
BRANCH  47  51
ATOM     51  C   UNL     1      -5.116  10.043 -13.124  1.00  0.00    +0.181 C 
BRANCH  51  52
ATOM     52  C   UNL     1      -6.642  10.236 -13.141  1.00  0.00    +0.209 C 
BRANCH  52  53
ATOM     53  C   UNL     1      -7.227   9.539 -14.363  1.00  0.00    +0.258 C 
ATOM     54  O   UNL     1      -8.381   9.109 -14.388  1.00  0.00    -0.300 OA
ENDBRANCH  52  53
BRANCH  52  55
ATOM     55  O   UNL     1      -7.266   9.698 -11.975  1.00  0.00    -0.383 OA
ATOM     56  H   UNL     1      -6.563   9.215 -11.493  1.00  0.00    +0.211 HD
ENDBRANCH  52  55
ENDBRANCH  51  52
BRANCH  51  57
ATOM     57  O   UNL     1      -4.511  11.198 -13.747  1.00  0.00    -0.387 OA
ATOM     58  H   UNL     1      -3.570  11.217 -13.461  1.00  0.00    +0.211 HD
ENDBRANCH  51  57
ENDBRANCH  47  51
ENDBRANCH  46  47
ENDBRANCH  41  46
ENDBRANCH   1  36
TORSDOF 24
ENDMDL
MODEL 6
REMARK VINA RESULT:    -6.711      1.580     12.264
REMARK INTER + INTRA:         -16.070
REMARK INTER:                 -13.944
REMARK INTRA:                  -2.126
REMARK UNBOUND:                -2.298
REMARK SMILES O=C[C@@H](O)[C@@H](O)[C@H](CO)O[C@H]1OC[C@@H](O[C@@H]2OC[C@H](O[C@H]3OC[C@H](O[C@H]4OC[C@H](O)[C@H](O)[C@@H]4O)[C@@H](O)[C@H]3O)[C@H](O)[C@@H]2O)[C@@H](O)[C@H]1O
REMARK SMILES IDX 15 1 16 2 19 3 18 4 39 5 17 6 41 7 20 8 21 9 24 10 23 11
REMARK SMILES IDX 35 12 22 13 37 14 25 15 26 16 28 17 29 18 27 19 31 20 33 21
REMARK SMILES IDX 30 22 32 24 34 26 36 28 38 30 40 32 42 34 14 36 13 37 43 38
REMARK SMILES IDX 12 39 45 40 11 41 44 42 46 44 10 46 7 47 8 48 9 49 5 51 3 52
REMARK SMILES IDX 2 53 1 54 4 55 6 57
REMARK H PARENT 30 23 32 25 34 27 36 29 38 31 40 33 42 35 44 43 46 45 9 50
REMARK H PARENT 4 56 6 58
ROOT
ATOM      1  O   UNL     1      -4.463   5.402 -12.900  1.00  0.00    -0.341 OA
ENDROOT
BRANCH   1   2
ATOM      2  C   UNL     1      -3.553   5.946 -13.861  1.00  0.00    +0.282 C 
ATOM      3  C   UNL     1      -2.603   5.170 -16.561  1.00  0.00    +0.179 C 
ATOM      4  C   UNL     1      -4.066   5.319 -16.114  1.00  0.00    +0.198 C 
ATOM      5  C   UNL     1      -1.646   5.329 -15.356  1.00  0.00    +0.179 C 
ATOM      6  O   UNL     1      -4.202   6.299 -15.089  1.00  0.00    -0.347 OA
ATOM      7  C   UNL     1      -2.348   4.987 -14.041  1.00  0.00    +0.202 C 
BRANCH   3   8
ATOM      8  O   UNL     1      -2.344   3.894 -17.172  1.00  0.00    -0.341 OA
BRANCH   8   9
ATOM      9  C   UNL     1      -2.138   3.946 -18.588  1.00  0.00    +0.282 C 
ATOM     10  C   UNL     1      -1.423   1.275 -18.392  1.00  0.00    +0.179 C 
ATOM     11  C   UNL     1      -0.519   2.249 -19.156  1.00  0.00    +0.198 C 
ATOM     12  C   UNL     1      -2.902   1.545 -18.741  1.00  0.00    +0.179 C 
ATOM     13  O   UNL     1      -0.781   3.632 -18.905  1.00  0.00    -0.347 OA
ATOM     14  C   UNL     1      -3.115   2.971 -19.279  1.00  0.00    +0.202 C 
BRANCH  10  15
ATOM     15  O   UNL     1      -0.999  -0.057 -18.720  1.00  0.00    -0.341 OA
BRANCH  15  16
ATOM     16  C   UNL     1       0.382  -0.147 -19.093  1.00  0.00    +0.282 C 
ATOM     17  C   UNL     1       2.381  -1.256 -18.461  1.00  0.00    +0.198 C 
ATOM     18  C   UNL     1       2.337  -2.289 -19.592  1.00  0.00    +0.171 C 
ATOM     19  O   UNL     1       1.065  -0.879 -18.067  1.00  0.00    -0.347 OA
ATOM     20  C   UNL     1       0.962  -2.304 -20.283  1.00  0.00    +0.179 C 
ATOM     21  C   UNL     1       0.452  -0.872 -20.463  1.00  0.00    +0.202 C 
BRANCH  18  22
ATOM     22  O   UNL     1       3.354  -2.004 -20.566  1.00  0.00    -0.388 OA
ATOM     23  H   UNL     1       4.190  -2.372 -20.207  1.00  0.00    +0.211 HD
ENDBRANCH  18  22
BRANCH  20  24
ATOM     24  O   UNL     1       1.069  -2.930 -21.575  1.00  0.00    -0.387 OA
ATOM     25  H   UNL     1       1.649  -3.711 -21.449  1.00  0.00    +0.211 HD
ENDBRANCH  20  24
BRANCH  21  26
ATOM     26  O   UNL     1       1.372  -0.193 -21.352  1.00  0.00    -0.385 OA
ATOM     27  H   UNL     1       0.790   0.295 -21.971  1.00  0.00    +0.211 HD
ENDBRANCH  21  26
ENDBRANCH  15  16
ENDBRANCH  10  15
BRANCH  12  28
ATOM     28  O   UNL     1      -3.706   1.337 -17.561  1.00  0.00    -0.387 OA
ATOM     29  H   UNL     1      -3.432   0.470 -17.197  1.00  0.00    +0.211 HD
ENDBRANCH  12  28
BRANCH  14  30
ATOM     30  O   UNL     1      -4.485   3.352 -19.091  1.00  0.00    -0.385 OA
ATOM     31  H   UNL     1      -4.532   3.877 -18.270  1.00  0.00    +0.211 HD
ENDBRANCH  14  30
ENDBRANCH   8   9
ENDBRANCH   3   8
BRANCH   5  32
ATOM     32  O   UNL     1      -0.484   4.500 -15.510  1.00  0.00    -0.387 OA
ATOM     33  H   UNL     1      -0.040   4.501 -14.635  1.00  0.00    +0.211 HD
ENDBRANCH   5  32
BRANCH   7  34
ATOM     34  O   UNL     1      -2.767   3.607 -14.081  1.00  0.00    -0.385 OA
ATOM     35  H   UNL     1      -3.738   3.626 -13.985  1.00  0.00    +0.211 HD
ENDBRANCH   7  34
ENDBRANCH   1   2
BRANCH   1  36
ATOM     36  C   UNL     1      -4.209   5.832 -11.562  1.00  0.00    +0.179 C 
ATOM     37  C   UNL     1      -5.095   5.067 -10.580  1.00  0.00    +0.198 C 
ATOM     38  C   UNL     1      -4.492   7.344 -11.440  1.00  0.00    +0.179 C 
ATOM     39  O   UNL     1      -4.815   5.394  -9.214  1.00  0.00    -0.347 OA
ATOM     40  C   UNL     1      -5.001   7.729 -10.041  1.00  0.00    +0.202 C 
ATOM     41  C   UNL     1      -4.428   6.758  -8.987  1.00  0.00    +0.282 C 
BRANCH  38  42
ATOM     42  O   UNL     1      -5.470   7.775 -12.409  1.00  0.00    -0.387 OA
ATOM     43  H   UNL     1      -5.025   7.710 -13.283  1.00  0.00    +0.211 HD
ENDBRANCH  38  42
BRANCH  40  44
ATOM     44  O   UNL     1      -6.444   7.692 -10.041  1.00  0.00    -0.385 OA
ATOM     45  H   UNL     1      -6.685   7.525  -9.105  1.00  0.00    +0.211 HD
ENDBRANCH  40  44
BRANCH  41  46
ATOM     46  O   UNL     1      -4.854   7.174  -7.690  1.00  0.00    -0.341 OA
BRANCH  46  47
ATOM     47  C   UNL     1      -4.342   6.372  -6.613  1.00  0.00    +0.178 C 
BRANCH  47  48
ATOM     48  C   UNL     1      -3.369   7.231  -5.799  1.00  0.00    +0.191 C 
BRANCH  48  49
ATOM     49  O   UNL     1      -2.480   6.418  -5.044  1.00  0.00    -0.394 OA
ATOM     50  H   UNL     1      -1.696   6.268  -5.603  1.00  0.00    +0.210 HD
ENDBRANCH  48  49
ENDBRANCH  47  48
BRANCH  47  51
ATOM     51  C   UNL     1      -5.519   5.793  -5.783  1.00  0.00    +0.181 C 
BRANCH  51  52
ATOM     52  C   UNL     1      -5.750   4.283  -5.964  1.00  0.00    +0.209 C 
BRANCH  52  53
ATOM     53  C   UNL     1      -4.809   3.514  -5.045  1.00  0.00    +0.258 C 
ATOM     54  O   UNL     1      -3.584   3.557  -5.169  1.00  0.00    -0.300 OA
ENDBRANCH  52  53
BRANCH  52  55
ATOM     55  O   UNL     1      -7.091   3.902  -5.656  1.00  0.00    -0.383 OA
ATOM     56  H   UNL     1      -7.602   4.029  -6.482  1.00  0.00    +0.211 HD
ENDBRANCH  52  55
ENDBRANCH  51  52
BRANCH  51  57
ATOM     57  O   UNL     1      -5.274   6.045  -4.382  1.00  0.00    -0.387 OA
ATOM     58  H   UNL     1      -4.326   5.842  -4.216  1.00  0.00    +0.211 HD
ENDBRANCH  51  57
ENDBRANCH  47  51
ENDBRANCH  46  47
ENDBRANCH  41  46
ENDBRANCH   1  36
TORSDOF 24
ENDMDL
MODEL 7
REMARK VINA RESULT:    -6.702      1.352      2.485
REMARK INTER + INTRA:         -16.052
REMARK INTER:                 -13.514
REMARK INTRA:                  -2.537
REMARK UNBOUND:                -2.298
REMARK SMILES O=C[C@@H](O)[C@@H](O)[C@H](CO)O[C@H]1OC[C@@H](O[C@@H]2OC[C@H](O[C@H]3OC[C@H](O[C@H]4OC[C@H](O)[C@H](O)[C@@H]4O)[C@@H](O)[C@H]3O)[C@H](O)[C@@H]2O)[C@@H](O)[C@H]1O
REMARK SMILES IDX 15 1 16 2 19 3 18 4 39 5 17 6 41 7 20 8 21 9 24 10 23 11
REMARK SMILES IDX 35 12 22 13 37 14 25 15 26 16 28 17 29 18 27 19 31 20 33 21
REMARK SMILES IDX 30 22 32 24 34 26 36 28 38 30 40 32 42 34 14 36 13 37 43 38
REMARK SMILES IDX 12 39 45 40 11 41 44 42 46 44 10 46 7 47 8 48 9 49 5 51 3 52
REMARK SMILES IDX 2 53 1 54 4 55 6 57
REMARK H PARENT 30 23 32 25 34 27 36 29 38 31 40 33 42 35 44 43 46 45 9 50
REMARK H PARENT 4 56 6 58
ROOT
ATOM      1  O   UNL     1      -2.714   4.879 -16.767  1.00  0.00    -0.341 OA
ENDROOT
BRANCH   1   2
ATOM      2  C   UNL     1      -3.238   4.511 -15.488  1.00  0.00    +0.282 C 
ATOM      3  C   UNL     1      -4.929   5.817 -13.431  1.00  0.00    +0.179 C 
ATOM      4  C   UNL     1      -5.261   5.663 -14.924  1.00  0.00    +0.198 C 
ATOM      5  C   UNL     1      -3.490   5.330 -13.139  1.00  0.00    +0.179 C 
ATOM      6  O   UNL     1      -4.671   4.487 -15.471  1.00  0.00    -0.347 OA
ATOM      7  C   UNL     1      -2.613   5.409 -14.389  1.00  0.00    +0.202 C 
BRANCH   3   8
ATOM      8  O   UNL     1      -5.039   7.179 -12.984  1.00  0.00    -0.341 OA
BRANCH   8   9
ATOM      9  C   UNL     1      -6.350   7.556 -12.549  1.00  0.00    +0.282 C 
ATOM     10  C   UNL     1      -5.595   6.603 -10.058  1.00  0.00    +0.179 C 
ATOM     11  C   UNL     1      -6.930   6.159 -10.668  1.00  0.00    +0.198 C 
ATOM     12  C   UNL     1      -5.389   8.115 -10.283  1.00  0.00    +0.179 C 
ATOM     13  O   UNL     1      -7.063   6.416 -12.068  1.00  0.00    -0.347 OA
ATOM     14  C   UNL     1      -6.231   8.642 -11.459  1.00  0.00    +0.202 C 
BRANCH  10  15
ATOM     15  O   UNL     1      -5.609   6.234  -8.670  1.00  0.00    -0.341 OA
BRANCH  15  16
ATOM     16  C   UNL     1      -4.469   6.702  -7.938  1.00  0.00    +0.282 C 
ATOM     17  C   UNL     1      -3.873   7.480  -5.778  1.00  0.00    +0.198 C 
ATOM     18  C   UNL     1      -3.228   6.166  -5.324  1.00  0.00    +0.171 C 
ATOM     19  O   UNL     1      -4.938   7.233  -6.691  1.00  0.00    -0.347 OA
ATOM     20  C   UNL     1      -3.579   5.011  -6.279  1.00  0.00    +0.179 C 
ATOM     21  C   UNL     1      -3.517   5.494  -7.729  1.00  0.00    +0.202 C 
BRANCH  18  22
ATOM     22  O   UNL     1      -1.799   6.309  -5.260  1.00  0.00    -0.388 OA
ATOM     23  H   UNL     1      -1.505   5.789  -4.481  1.00  0.00    +0.211 HD
ENDBRANCH  18  22
BRANCH  20  24
ATOM     24  O   UNL     1      -2.645   3.929  -6.103  1.00  0.00    -0.387 OA
ATOM     25  H   UNL     1      -2.314   3.711  -7.000  1.00  0.00    +0.211 HD
ENDBRANCH  20  24
BRANCH  21  26
ATOM     26  O   UNL     1      -2.146   5.873  -8.002  1.00  0.00    -0.385 OA
ATOM     27  H   UNL     1      -2.198   6.831  -8.201  1.00  0.00    +0.211 HD
ENDBRANCH  21  26
ENDBRANCH  15  16
ENDBRANCH  10  15
BRANCH  12  28
ATOM     28  O   UNL     1      -3.989   8.366 -10.527  1.00  0.00    -0.387 OA
ATOM     29  H   UNL     1      -3.499   7.761  -9.933  1.00  0.00    +0.211 HD
ENDBRANCH  12  28
BRANCH  14  30
ATOM     30  O   UNL     1      -5.646   9.853 -11.960  1.00  0.00    -0.385 OA
ATOM     31  H   UNL     1      -5.430   9.704 -12.899  1.00  0.00    +0.211 HD
ENDBRANCH  14  30
ENDBRANCH   8   9
ENDBRANCH   3   8
BRANCH   5  32
ATOM     32  O   UNL     1      -2.893   6.098 -12.083  1.00  0.00    -0.387 OA
ATOM     33  H   UNL     1      -1.975   5.760 -11.996  1.00  0.00    +0.211 HD
ENDBRANCH   5  32
BRANCH   7  34
ATOM     34  O   UNL     1      -2.526   6.785 -14.811  1.00  0.00    -0.385 OA
ATOM     35  H   UNL     1      -1.571   6.987 -14.846  1.00  0.00    +0.211 HD
ENDBRANCH   7  34
ENDBRANCH   1   2
BRANCH   1  36
ATOM     36  C   UNL     1      -1.946   3.849 -17.390  1.00  0.00    +0.179 C 
ATOM     37  C   UNL     1      -1.276   4.378 -18.658  1.00  0.00    +0.198 C 
ATOM     38  C   UNL     1      -2.864   2.662 -17.750  1.00  0.00    +0.179 C 
ATOM     39  O   UNL     1      -0.417   3.410 -19.273  1.00  0.00    -0.347 OA
ATOM     40  C   UNL     1      -2.393   1.926 -19.016  1.00  0.00    +0.202 C 
ATOM     41  C   UNL     1      -0.861   2.050 -19.157  1.00  0.00    +0.282 C 
BRANCH  38  42
ATOM     42  O   UNL     1      -4.224   3.095 -17.961  1.00  0.00    -0.387 OA
ATOM     43  H   UNL     1      -4.443   2.841 -18.885  1.00  0.00    +0.211 HD
ENDBRANCH  38  42
BRANCH  40  44
ATOM     44  O   UNL     1      -3.061   2.494 -20.164  1.00  0.00    -0.385 OA
ATOM     45  H   UNL     1      -2.703   3.404 -20.229  1.00  0.00    +0.211 HD
ENDBRANCH  40  44
BRANCH  41  46
ATOM     46  O   UNL     1      -0.437   1.302 -20.296  1.00  0.00    -0.341 OA
BRANCH  46  47
ATOM     47  C   UNL     1       0.235   0.072 -19.980  1.00  0.00    +0.178 C 
BRANCH  47  48
ATOM     48  C   UNL     1       0.781   0.179 -18.552  1.00  0.00    +0.191 C 
BRANCH  48  49
ATOM     49  O   UNL     1       0.537  -1.017 -17.823  1.00  0.00    -0.394 OA
ATOM     50  H   UNL     1       1.148  -1.689 -18.176  1.00  0.00    +0.210 HD
ENDBRANCH  48  49
ENDBRANCH  47  48
BRANCH  47  51
ATOM     51  C   UNL     1      -0.729  -1.124 -20.200  1.00  0.00    +0.181 C 
BRANCH  51  52
ATOM     52  C   UNL     1      -1.475  -1.109 -21.545  1.00  0.00    +0.209 C 
BRANCH  52  53
ATOM     53  C   UNL     1      -2.002  -2.506 -21.847  1.00  0.00    +0.258 C 
ATOM     54  O   UNL     1      -1.347  -3.334 -22.483  1.00  0.00    -0.300 OA
ENDBRANCH  52  53
BRANCH  52  55
ATOM     55  O   UNL     1      -2.580  -0.204 -21.538  1.00  0.00    -0.383 OA
ATOM     56  H   UNL     1      -2.541   0.273 -22.393  1.00  0.00    +0.211 HD
ENDBRANCH  52  55
ENDBRANCH  51  52
BRANCH  51  57
ATOM     57  O   UNL     1       0.023  -2.356 -20.117  1.00  0.00    -0.387 OA
ATOM     58  H   UNL     1       0.107  -2.701 -21.034  1.00  0.00    +0.211 HD
ENDBRANCH  51  57
ENDBRANCH  47  51
ENDBRANCH  46  47
ENDBRANCH  41  46
ENDBRANCH   1  36
TORSDOF 24
ENDMDL
MODEL 8
REMARK VINA RESULT:    -6.566      1.792     12.338
REMARK INTER + INTRA:         -15.772
REMARK INTER:                 -14.188
REMARK INTRA:                  -1.585
REMARK UNBOUND:                -2.298
REMARK SMILES O=C[C@@H](O)[C@@H](O)[C@H](CO)O[C@H]1OC[C@@H](O[C@@H]2OC[C@H](O[C@H]3OC[C@H](O[C@H]4OC[C@H](O)[C@H](O)[C@@H]4O)[C@@H](O)[C@H]3O)[C@H](O)[C@@H]2O)[C@@H](O)[C@H]1O
REMARK SMILES IDX 15 1 16 2 19 3 18 4 39 5 17 6 41 7 20 8 21 9 24 10 23 11
REMARK SMILES IDX 35 12 22 13 37 14 25 15 26 16 28 17 29 18 27 19 31 20 33 21
REMARK SMILES IDX 30 22 32 24 34 26 36 28 38 30 40 32 42 34 14 36 13 37 43 38
REMARK SMILES IDX 12 39 45 40 11 41 44 42 46 44 10 46 7 47 8 48 9 49 5 51 3 52
REMARK SMILES IDX 2 53 1 54 4 55 6 57
REMARK H PARENT 30 23 32 25 34 27 36 29 38 31 40 33 42 35 44 43 46 45 9 50
REMARK H PARENT 4 56 6 58
ROOT
ATOM      1  O   UNL     1      -4.571   5.483 -13.191  1.00  0.00    -0.341 OA
ENDROOT
BRANCH   1   2
ATOM      2  C   UNL     1      -3.606   5.957 -14.134  1.00  0.00    +0.282 C 
ATOM      3  C   UNL     1      -2.506   4.992 -16.714  1.00  0.00    +0.179 C 
ATOM      4  C   UNL     1      -3.991   5.173 -16.363  1.00  0.00    +0.198 C 
ATOM      5  C   UNL     1      -1.619   5.235 -15.469  1.00  0.00    +0.179 C 
ATOM      6  O   UNL     1      -4.182   6.223 -15.419  1.00  0.00    -0.347 OA
ATOM      7  C   UNL     1      -2.397   4.987 -14.176  1.00  0.00    +0.202 C 
BRANCH   3   8
ATOM      8  O   UNL     1      -2.219   3.677 -17.217  1.00  0.00    -0.341 OA
BRANCH   8   9
ATOM      9  C   UNL     1      -1.646   3.656 -18.530  1.00  0.00    +0.282 C 
ATOM     10  C   UNL     1      -1.788   0.894 -18.345  1.00  0.00    +0.179 C 
ATOM     11  C   UNL     1      -0.480   1.559 -18.789  1.00  0.00    +0.198 C 
ATOM     12  C   UNL     1      -2.988   1.578 -19.033  1.00  0.00    +0.179 C 
ATOM     13  O   UNL     1      -0.399   2.961 -18.518  1.00  0.00    -0.347 OA
ATOM     14  C   UNL     1      -2.644   3.001 -19.508  1.00  0.00    +0.202 C 
BRANCH  10  15
ATOM     15  O   UNL     1      -1.686  -0.506 -18.646  1.00  0.00    -0.341 OA
BRANCH  15  16
ATOM     16  C   UNL     1      -1.682  -0.795 -20.049  1.00  0.00    +0.282 C 
ATOM     17  C   UNL     1      -0.463  -2.038 -21.660  1.00  0.00    +0.198 C 
ATOM     18  C   UNL     1      -1.472  -3.188 -21.749  1.00  0.00    +0.171 C 
ATOM     19  O   UNL     1      -0.455  -1.471 -20.353  1.00  0.00    -0.347 OA
ATOM     20  C   UNL     1      -2.490  -3.130 -20.596  1.00  0.00    +0.179 C 
ATOM     21  C   UNL     1      -2.919  -1.681 -20.351  1.00  0.00    +0.202 C 
BRANCH  18  22
ATOM     22  O   UNL     1      -2.173  -3.138 -23.003  1.00  0.00    -0.388 OA
ATOM     23  H   UNL     1      -3.122  -3.272 -22.793  1.00  0.00    +0.211 HD
ENDBRANCH  18  22
BRANCH  20  24
ATOM     24  O   UNL     1      -3.651  -3.914 -20.928  1.00  0.00    -0.387 OA
ATOM     25  H   UNL     1      -3.316  -4.708 -21.395  1.00  0.00    +0.211 HD
ENDBRANCH  20  24
BRANCH  21  26
ATOM     26  O   UNL     1      -3.597  -1.222 -21.545  1.00  0.00    -0.385 OA
ATOM     27  H   UNL     1      -3.713  -0.260 -21.399  1.00  0.00    +0.211 HD
ENDBRANCH  21  26
ENDBRANCH  15  16
ENDBRANCH  10  15
BRANCH  12  28
ATOM     28  O   UNL     1      -4.096   1.620 -18.108  1.00  0.00    -0.387 OA
ATOM     29  H   UNL     1      -3.721   1.405 -17.229  1.00  0.00    +0.211 HD
ENDBRANCH  12  28
BRANCH  14  30
ATOM     30  O   UNL     1      -3.852   3.764 -19.644  1.00  0.00    -0.385 OA
ATOM     31  H   UNL     1      -4.578   3.133 -19.801  1.00  0.00    +0.211 HD
ENDBRANCH  14  30
ENDBRANCH   8   9
ENDBRANCH   3   8
BRANCH   5  32
ATOM     32  O   UNL     1      -0.454   4.397 -15.498  1.00  0.00    -0.387 OA
ATOM     33  H   UNL     1      -0.623   3.731 -16.199  1.00  0.00    +0.211 HD
ENDBRANCH   5  32
BRANCH   7  34
ATOM     34  O   UNL     1      -2.819   3.608 -14.144  1.00  0.00    -0.385 OA
ATOM     35  H   UNL     1      -2.524   3.266 -13.278  1.00  0.00    +0.211 HD
ENDBRANCH   7  34
ENDBRANCH   1   2
BRANCH   1  36
ATOM     36  C   UNL     1      -4.306   5.886 -11.846  1.00  0.00    +0.179 C 
ATOM     37  C   UNL     1      -5.130   5.048 -10.868  1.00  0.00    +0.198 C 
ATOM     38  C   UNL     1      -4.661   7.377 -11.672  1.00  0.00    +0.179 C 
ATOM     39  O   UNL     1      -4.832   5.349  -9.499  1.00  0.00    -0.347 OA
ATOM     40  C   UNL     1      -5.153   7.695 -10.250  1.00  0.00    +0.202 C 
ATOM     41  C   UNL     1      -4.508   6.723  -9.240  1.00  0.00    +0.282 C 
BRANCH  38  42
ATOM     42  O   UNL     1      -5.682   7.788 -12.604  1.00  0.00    -0.387 OA
ATOM     43  H   UNL     1      -5.286   8.520 -13.126  1.00  0.00    +0.211 HD
ENDBRANCH  38  42
BRANCH  40  44
ATOM     44  O   UNL     1      -6.593   7.585 -10.218  1.00  0.00    -0.385 OA
ATOM     45  H   UNL     1      -6.791   7.219  -9.330  1.00  0.00    +0.211 HD
ENDBRANCH  40  44
BRANCH  41  46
ATOM     46  O   UNL     1      -4.922   7.078  -7.921  1.00  0.00    -0.341 OA
BRANCH  46  47
ATOM     47  C   UNL     1      -4.099   6.536  -6.875  1.00  0.00    +0.178 C 
BRANCH  47  48
ATOM     48  C   UNL     1      -3.965   7.595  -5.775  1.00  0.00    +0.191 C 
BRANCH  48  49
ATOM     49  O   UNL     1      -2.644   7.620  -5.250  1.00  0.00    -0.394 OA
ATOM     50  H   UNL     1      -2.325   8.536  -5.344  1.00  0.00    +0.210 HD
ENDBRANCH  48  49
ENDBRANCH  47  48
BRANCH  47  51
ATOM     51  C   UNL     1      -4.692   5.188  -6.385  1.00  0.00    +0.181 C 
BRANCH  51  52
ATOM     52  C   UNL     1      -3.713   4.307  -5.591  1.00  0.00    +0.209 C 
BRANCH  52  53
ATOM     53  C   UNL     1      -4.393   2.993  -5.229  1.00  0.00    +0.258 C 
ATOM     54  O   UNL     1      -5.378   2.942  -4.490  1.00  0.00    -0.300 OA
ENDBRANCH  52  53
BRANCH  52  55
ATOM     55  O   UNL     1      -2.530   4.011  -6.334  1.00  0.00    -0.383 OA
ATOM     56  H   UNL     1      -2.053   4.862  -6.429  1.00  0.00    +0.211 HD
ENDBRANCH  52  55
ENDBRANCH  51  52
BRANCH  51  57
ATOM     57  O   UNL     1      -5.837   5.456  -5.546  1.00  0.00    -0.387 OA
ATOM     58  H   UNL     1      -6.519   4.783  -5.768  1.00  0.00    +0.211 HD
ENDBRANCH  51  57
ENDBRANCH  47  51
ENDBRANCH  46  47
ENDBRANCH  41  46
ENDBRANCH   1  36
TORSDOF 24
ENDMDL
MODEL 9
REMARK VINA RESULT:    -6.505      2.515      3.826
REMARK INTER + INTRA:         -15.648
REMARK INTER:                 -12.388
REMARK INTRA:                  -3.260
REMARK UNBOUND:                -2.298
REMARK SMILES O=C[C@@H](O)[C@@H](O)[C@H](CO)O[C@H]1OC[C@@H](O[C@@H]2OC[C@H](O[C@H]3OC[C@H](O[C@H]4OC[C@H](O)[C@H](O)[C@@H]4O)[C@@H](O)[C@H]3O)[C@H](O)[C@@H]2O)[C@@H](O)[C@H]1O
REMARK SMILES IDX 15 1 16 2 19 3 18 4 39 5 17 6 41 7 20 8 21 9 24 10 23 11
REMARK SMILES IDX 35 12 22 13 37 14 25 15 26 16 28 17 29 18 27 19 31 20 33 21
REMARK SMILES IDX 30 22 32 24 34 26 36 28 38 30 40 32 42 34 14 36 13 37 43 38
REMARK SMILES IDX 12 39 45 40 11 41 44 42 46 44 10 46 7 47 8 48 9 49 5 51 3 52
REMARK SMILES IDX 2 53 1 54 4 55 6 57
REMARK H PARENT 30 23 32 25 34 27 36 29 38 31 40 33 42 35 44 43 46 45 9 50
REMARK H PARENT 4 56 6 58
ROOT
ATOM      1  O   UNL     1      -4.610   3.763 -18.551  1.00  0.00    -0.341 OA
ENDROOT
BRANCH   1   2
ATOM      2  C   UNL     1      -4.917   3.707 -17.155  1.00  0.00    +0.282 C 
ATOM      3  C   UNL     1      -6.913   4.979 -15.367  1.00  0.00    +0.179 C 
ATOM      4  C   UNL     1      -7.206   4.212 -16.667  1.00  0.00    +0.198 C 
ATOM      5  C   UNL     1      -5.388   5.150 -15.168  1.00  0.00    +0.179 C 
ATOM      6  O   UNL     1      -6.234   3.198 -16.906  1.00  0.00    -0.347 OA
ATOM      7  C   UNL     1      -4.643   5.086 -16.503  1.00  0.00    +0.202 C 
BRANCH   3   8
ATOM      8  O   UNL     1      -7.514   6.285 -15.355  1.00  0.00    -0.341 OA
BRANCH   8   9
ATOM      9  C   UNL     1      -8.833   6.325 -14.799  1.00  0.00    +0.282 C 
ATOM     10  C   UNL     1      -7.587   6.666 -12.347  1.00  0.00    +0.179 C 
ATOM     11  C   UNL     1      -8.683   5.605 -12.501  1.00  0.00    +0.198 C 
ATOM     12  C   UNL     1      -8.006   7.964 -13.068  1.00  0.00    +0.179 C 
ATOM     13  O   UNL     1      -9.007   5.270 -13.853  1.00  0.00    -0.347 OA
ATOM     14  C   UNL     1      -9.069   7.705 -14.150  1.00  0.00    +0.202 C 
BRANCH  10  15
ATOM     15  O   UNL     1      -7.355   6.849 -10.942  1.00  0.00    -0.341 OA
BRANCH  15  16
ATOM     16  C   UNL     1      -6.069   6.393 -10.506  1.00  0.00    +0.282 C 
ATOM     17  C   UNL     1      -4.161   5.241 -11.318  1.00  0.00    +0.198 C 
ATOM     18  C   UNL     1      -3.302   6.496 -11.502  1.00  0.00    +0.171 C 
ATOM     19  O   UNL     1      -5.539   5.536 -11.526  1.00  0.00    -0.347 OA
ATOM     20  C   UNL     1      -4.153   7.775 -11.412  1.00  0.00    +0.179 C 
ATOM     21  C   UNL     1      -5.177   7.643 -10.283  1.00  0.00    +0.202 C 
BRANCH  18  22
ATOM     22  O   UNL     1      -2.269   6.542 -10.503  1.00  0.00    -0.388 OA
ATOM     23  H   UNL     1      -1.425   6.673 -10.986  1.00  0.00    +0.211 HD
ENDBRANCH  18  22
BRANCH  20  24
ATOM     24  O   UNL     1      -3.306   8.909 -11.149  1.00  0.00    -0.387 OA
ATOM     25  H   UNL     1      -2.836   9.096 -11.989  1.00  0.00    +0.211 HD
ENDBRANCH  20  24
BRANCH  21  26
ATOM     26  O   UNL     1      -4.441   7.530  -9.041  1.00  0.00    -0.385 OA
ATOM     27  H   UNL     1      -4.499   6.579  -8.815  1.00  0.00    +0.211 HD
ENDBRANCH  21  26
ENDBRANCH  15  16
ENDBRANCH  10  15
BRANCH  12  28
ATOM     28  O   UNL     1      -6.836   8.568 -13.660  1.00  0.00    -0.387 OA
ATOM     29  H   UNL     1      -6.281   7.826 -13.979  1.00  0.00    +0.211 HD
ENDBRANCH  12  28
BRANCH  14  30
ATOM     30  O   UNL     1      -9.041   8.770 -15.111  1.00  0.00    -0.385 OA
ATOM     31  H   UNL     1      -9.810   9.343 -14.933  1.00  0.00    +0.211 HD
ENDBRANCH  14  30
ENDBRANCH   8   9
ENDBRANCH   3   8
BRANCH   5  32
ATOM     32  O   UNL     1      -5.092   6.392 -14.512  1.00  0.00    -0.387 OA
ATOM     33  H   UNL     1      -5.463   7.093 -15.091  1.00  0.00    +0.211 HD
ENDBRANCH   5  32
BRANCH   7  34
ATOM     34  O   UNL     1      -5.094   6.170 -17.340  1.00  0.00    -0.385 OA
ATOM     35  H   UNL     1      -6.003   6.368 -17.044  1.00  0.00    +0.211 HD
ENDBRANCH   7  34
ENDBRANCH   1   2
BRANCH   1  36
ATOM     36  C   UNL     1      -3.365   3.149 -18.889  1.00  0.00    +0.179 C 
ATOM     37  C   UNL     1      -2.646   2.673 -17.627  1.00  0.00    +0.198 C 
ATOM     38  C   UNL     1      -2.473   4.161 -19.638  1.00  0.00    +0.179 C 
ATOM     39  O   UNL     1      -1.434   1.966 -17.916  1.00  0.00    -0.347 OA
ATOM     40  C   UNL     1      -0.978   3.932 -19.364  1.00  0.00    +0.202 C 
ATOM     41  C   UNL     1      -0.719   2.440 -19.067  1.00  0.00    +0.282 C 
BRANCH  38  42
ATOM     42  O   UNL     1      -2.796   5.518 -19.271  1.00  0.00    -0.387 OA
ATOM     43  H   UNL     1      -3.423   5.448 -18.518  1.00  0.00    +0.211 HD
ENDBRANCH  38  42
BRANCH  40  44
ATOM     44  O   UNL     1      -0.575   4.754 -18.246  1.00  0.00    -0.385 OA
ATOM     45  H   UNL     1      -1.118   5.566 -18.332  1.00  0.00    +0.211 HD
ENDBRANCH  40  44
BRANCH  41  46
ATOM     46  O   UNL     1       0.682   2.237 -18.885  1.00  0.00    -0.341 OA
BRANCH  46  47
ATOM     47  C   UNL     1       1.334   1.585 -19.987  1.00  0.00    +0.178 C 
BRANCH  47  48
ATOM     48  C   UNL     1       2.212   2.618 -20.701  1.00  0.00    +0.191 C 
BRANCH  48  49
ATOM     49  O   UNL     1       2.765   3.544 -19.776  1.00  0.00    -0.394 OA
ATOM     50  H   UNL     1       3.340   4.140 -20.288  1.00  0.00    +0.210 HD
ENDBRANCH  48  49
ENDBRANCH  47  48
BRANCH  47  51
ATOM     51  C   UNL     1       2.110   0.341 -19.476  1.00  0.00    +0.181 C 
BRANCH  51  52
ATOM     52  C   UNL     1       1.221  -0.817 -18.994  1.00  0.00    +0.209 C 
BRANCH  52  53
ATOM     53  C   UNL     1       2.079  -2.058 -18.781  1.00  0.00    +0.258 C 
ATOM     54  O   UNL     1       3.133  -2.029 -18.144  1.00  0.00    -0.300 OA
ENDBRANCH  52  53
BRANCH  52  55
ATOM     55  O   UNL     1       0.558  -0.513 -17.767  1.00  0.00    -0.383 OA
ATOM     56  H   UNL     1       1.115  -0.897 -17.058  1.00  0.00    +0.211 HD
ENDBRANCH  52  55
ENDBRANCH  51  52
BRANCH  51  57
ATOM     57  O   UNL     1       2.955  -0.154 -20.539  1.00  0.00    -0.387 OA
ATOM     58  H   UNL     1       3.106   0.596 -21.157  1.00  0.00    +0.211 HD
ENDBRANCH  51  57
ENDBRANCH  47  51
ENDBRANCH  46  47
ENDBRANCH  41  46
ENDBRANCH   1  36
TORSDOF 24
ENDMDL
