MODEL 1
REMARK VINA RESULT:    -7.477      0.000      0.000
REMARK INTER + INTRA:         -11.946
REMARK INTER:                 -10.974
REMARK INTRA:                  -0.972
REMARK UNBOUND:                -0.972
REMARK SMILES O=S(=O)(O)OC[C@@H]1O[C@H](O[C@H]2[C@@H]3OC[C@H]2O[C@@H](O)[C@H]3O)[C@@H](O)[C@H](O)[C@@H]1O
REMARK SMILES IDX 9 1 21 2 23 3 25 4 7 5 8 6 10 7 11 8 14 9 15 10 13 11 16 12
REMARK SMILES IDX 12 13 17 14 19 15 18 16 20 18 22 20 24 22 6 24 5 25 2 26
REMARK SMILES IDX 1 27 3 28 4 29 26 31
REMARK H PARENT 18 17 20 19 22 21 24 23 4 30 26 32
ROOT
ATOM      1  C   UNL     1       1.679   7.012  -8.657  1.00  0.00    +0.282 C 
ATOM      2  C   UNL     1       0.382   6.180  -8.630  1.00  0.00    +0.202 C 
ATOM      3  C   UNL     1      -0.786   7.128  -8.417  1.00  0.00    +0.179 C 
ATOM      4  C   UNL     1      -0.900   8.069  -9.620  1.00  0.00    +0.177 C 
ATOM      5  C   UNL     1       0.476   8.485 -10.192  1.00  0.00    +0.180 C 
ATOM      6  O   UNL     1       1.543   8.307  -9.240  1.00  0.00    -0.341 OA
ENDROOT
BRANCH   1   7
ATOM      7  O   UNL     1       2.695   6.220  -9.278  1.00  0.00    -0.341 OA
BRANCH   7   8
ATOM      8  C   UNL     1       4.006   6.546  -8.828  1.00  0.00    +0.184 C 
ATOM      9  C   UNL     1       6.300   6.115  -8.619  1.00  0.00    +0.195 C 
ATOM     10  C   UNL     1       5.127   5.819  -9.554  1.00  0.00    +0.179 C 
ATOM     11  O   UNL     1       5.736   6.176  -7.284  1.00  0.00    -0.370 OA
ATOM     12  O   UNL     1       4.827   4.416  -9.666  1.00  0.00    -0.342 OA
ATOM     13  C   UNL     1       4.302   6.010  -7.432  1.00  0.00    +0.184 C 
ATOM     14  C   UNL     1       4.648   3.710  -8.443  1.00  0.00    +0.279 C 
ATOM     15  C   UNL     1       3.929   4.524  -7.344  1.00  0.00    +0.202 C 
BRANCH  14  16
ATOM     16  O   UNL     1       5.922   3.268  -7.980  1.00  0.00    -0.366 OA
ATOM     17  H   UNL     1       5.760   2.971  -7.067  1.00  0.00    +0.213 HD
ENDBRANCH  14  16
BRANCH  15  18
ATOM     18  O   UNL     1       4.240   4.009  -6.043  1.00  0.00    -0.385 OA
ATOM     19  H   UNL     1       3.404   3.584  -5.751  1.00  0.00    +0.211 HD
ENDBRANCH  15  18
ENDBRANCH   7   8
ENDBRANCH   1   7
BRANCH   2  20
ATOM     20  O   UNL     1       0.402   5.209  -7.570  1.00  0.00    -0.385 OA
ATOM     21  H   UNL     1      -0.495   4.823  -7.539  1.00  0.00    +0.211 HD
ENDBRANCH   2  20
BRANCH   3  22
ATOM     22  O   UNL     1      -2.011   6.390  -8.276  1.00  0.00    -0.387 OA
ATOM     23  H   UNL     1      -2.704   7.075  -8.162  1.00  0.00    +0.211 HD
ENDBRANCH   3  22
BRANCH   5  24
ATOM     24  C   UNL     1       0.824   7.877 -11.563  1.00  0.00    +0.220 C 
BRANCH  24  25
ATOM     25  O   UNL     1       2.164   8.237 -11.890  1.00  0.00    -0.245 OA
BRANCH  25  26
ATOM     26  S   UNL     1       2.394   9.237 -13.148  1.00  0.00    +0.397 S 
ATOM     27  O   UNL     1       1.132   9.809 -13.561  1.00  0.00    -0.169 OA
ATOM     28  O   UNL     1       3.290   8.594 -14.082  1.00  0.00    -0.169 OA
BRANCH  26  29
ATOM     29  O   UNL     1       3.269  10.414 -12.484  1.00  0.00    -0.264 OA
ATOM     30  H   UNL     1       3.554  10.094 -11.603  1.00  0.00    +0.236 HD
ENDBRANCH  26  29
ENDBRANCH  25  26
ENDBRANCH  24  25
ENDBRANCH   5  24
BRANCH   4  31
ATOM     31  O   UNL     1      -1.718   7.454 -10.621  1.00  0.00    -0.387 OA
ATOM     32  H   UNL     1      -1.435   6.512 -10.634  1.00  0.00    +0.211 HD
ENDBRANCH   4  31
TORSDOF 11
ENDMDL
MODEL 2
REMARK VINA RESULT:    -6.250      1.967      6.030
REMARK INTER + INTRA:         -10.145
REMARK INTER:                  -9.264
REMARK INTRA:                  -0.881
REMARK UNBOUND:                -0.972
REMARK SMILES O=S(=O)(O)OC[C@@H]1O[C@H](O[C@H]2[C@@H]3OC[C@H]2O[C@@H](O)[C@H]3O)[C@@H](O)[C@H](O)[C@@H]1O
REMARK SMILES IDX 9 1 21 2 23 3 25 4 7 5 8 6 10 7 11 8 14 9 15 10 13 11 16 12
REMARK SMILES IDX 12 13 17 14 19 15 18 16 20 18 22 20 24 22 6 24 5 25 2 26
REMARK SMILES IDX 1 27 3 28 4 29 26 31
REMARK H PARENT 18 17 20 19 22 21 24 23 4 30 26 32
ROOT
ATOM      1  C   UNL     1       0.651   7.019  -9.800  1.00  0.00    +0.282 C 
ATOM      2  C   UNL     1       1.517   7.108  -8.528  1.00  0.00    +0.202 C 
ATOM      3  C   UNL     1       2.623   6.072  -8.635  1.00  0.00    +0.179 C 
ATOM      4  C   UNL     1       3.539   6.429  -9.809  1.00  0.00    +0.177 C 
ATOM      5  C   UNL     1       2.770   7.020 -11.015  1.00  0.00    +0.180 C 
ATOM      6  O   UNL     1       1.369   6.690 -10.987  1.00  0.00    -0.341 OA
ENDROOT
BRANCH   1   7
ATOM      7  O   UNL     1      -0.091   8.238  -9.910  1.00  0.00    -0.341 OA
BRANCH   7   8
ATOM      8  C   UNL     1      -1.267   8.102 -10.700  1.00  0.00    +0.184 C 
ATOM      9  C   UNL     1      -3.408   8.777 -11.377  1.00  0.00    +0.195 C 
ATOM     10  C   UNL     1      -2.118   9.359 -10.796  1.00  0.00    +0.179 C 
ATOM     11  O   UNL     1      -3.515   7.435 -10.836  1.00  0.00    -0.370 OA
ATOM     12  O   UNL     1      -2.294   9.947  -9.494  1.00  0.00    -0.342 OA
ATOM     13  C   UNL     1      -2.317   7.208 -10.050  1.00  0.00    +0.184 C 
ATOM     14  C   UNL     1      -2.931   9.132  -8.516  1.00  0.00    +0.279 C 
ATOM     15  C   UNL     1      -2.550   7.637  -8.595  1.00  0.00    +0.202 C 
BRANCH  14  16
ATOM     16  O   UNL     1      -4.342   9.292  -8.636  1.00  0.00    -0.366 OA
ATOM     17  H   UNL     1      -4.458   9.851  -9.424  1.00  0.00    +0.213 HD
ENDBRANCH  14  16
BRANCH  15  18
ATOM     18  O   UNL     1      -3.562   6.820  -7.991  1.00  0.00    -0.385 OA
ATOM     19  H   UNL     1      -4.143   6.571  -8.741  1.00  0.00    +0.211 HD
ENDBRANCH  15  18
ENDBRANCH   7   8
ENDBRANCH   1   7
BRANCH   2  20
ATOM     20  O   UNL     1       0.742   6.852  -7.345  1.00  0.00    -0.385 OA
ATOM     21  H   UNL     1      -0.194   6.862  -7.627  1.00  0.00    +0.211 HD
ENDBRANCH   2  20
BRANCH   3  22
ATOM     22  O   UNL     1       3.397   6.039  -7.424  1.00  0.00    -0.387 OA
ATOM     23  H   UNL     1       3.874   5.183  -7.456  1.00  0.00    +0.211 HD
ENDBRANCH   3  22
BRANCH   5  24
ATOM     24  C   UNL     1       3.001   8.522 -11.262  1.00  0.00    +0.220 C 
BRANCH  24  25
ATOM     25  O   UNL     1       2.092   8.959 -12.270  1.00  0.00    -0.245 OA
BRANCH  25  26
ATOM     26  S   UNL     1       2.670   9.917 -13.447  1.00  0.00    +0.397 S 
ATOM     27  O   UNL     1       1.585  10.633 -14.078  1.00  0.00    -0.169 OA
ATOM     28  O   UNL     1       3.642   9.165 -14.207  1.00  0.00    -0.169 OA
BRANCH  26  29
ATOM     29  O   UNL     1       3.539  10.984 -12.612  1.00  0.00    -0.264 OA
ATOM     30  H   UNL     1       3.515  10.701 -11.675  1.00  0.00    +0.236 HD
ENDBRANCH  26  29
ENDBRANCH  25  26
ENDBRANCH  24  25
ENDBRANCH   5  24
BRANCH   4  31
ATOM     31  O   UNL     1       4.562   7.320  -9.352  1.00  0.00    -0.387 OA
ATOM     32  H   UNL     1       5.405   6.844  -9.524  1.00  0.00    +0.211 HD
ENDBRANCH   4  31
TORSDOF 11
ENDMDL
MODEL 3
REMARK VINA RESULT:    -6.204      2.884      6.342
REMARK INTER + INTRA:         -10.077
REMARK INTER:                  -9.306
REMARK INTRA:                  -0.770
REMARK UNBOUND:                -0.972
REMARK SMILES O=S(=O)(O)OC[C@@H]1O[C@H](O[C@H]2[C@@H]3OC[C@H]2O[C@@H](O)[C@H]3O)[C@@H](O)[C@H](O)[C@@H]1O
REMARK SMILES IDX 9 1 21 2 23 3 25 4 7 5 8 6 10 7 11 8 14 9 15 10 13 11 16 12
REMARK SMILES IDX 12 13 17 14 19 15 18 16 20 18 22 20 24 22 6 24 5 25 2 26
REMARK SMILES IDX 1 27 3 28 4 29 26 31
REMARK H PARENT 18 17 20 19 22 21 24 23 4 30 26 32
ROOT
ATOM      1  C   UNL     1       1.003   8.260 -10.655  1.00  0.00    +0.282 C 
ATOM      2  C   UNL     1       1.904   7.287  -9.870  1.00  0.00    +0.202 C 
ATOM      3  C   UNL     1       1.583   7.431  -8.393  1.00  0.00    +0.179 C 
ATOM      4  C   UNL     1       0.141   6.982  -8.142  1.00  0.00    +0.177 C 
ATOM      5  C   UNL     1      -0.820   7.371  -9.291  1.00  0.00    +0.180 C 
ATOM      6  O   UNL     1      -0.299   8.442 -10.102  1.00  0.00    -0.341 OA
ENDROOT
BRANCH   1   7
ATOM      7  O   UNL     1       0.979   7.831 -12.019  1.00  0.00    -0.341 OA
BRANCH   7   8
ATOM      8  C   UNL     1       0.517   8.840 -12.911  1.00  0.00    +0.184 C 
ATOM      9  C   UNL     1       0.493   9.929 -14.987  1.00  0.00    +0.195 C 
ATOM     10  C   UNL     1       0.766   8.550 -14.384  1.00  0.00    +0.179 C 
ATOM     11  O   UNL     1       0.915  10.890 -13.986  1.00  0.00    -0.370 OA
ATOM     12  O   UNL     1       2.117   8.098 -14.585  1.00  0.00    -0.342 OA
ATOM     13  C   UNL     1       1.334  10.124 -12.827  1.00  0.00    +0.184 C 
ATOM     14  C   UNL     1       3.148   8.999 -14.196  1.00  0.00    +0.279 C 
ATOM     15  C   UNL     1       2.833   9.805 -12.917  1.00  0.00    +0.202 C 
BRANCH  14  16
ATOM     16  O   UNL     1       3.419   9.880 -15.284  1.00  0.00    -0.366 OA
ATOM     17  H   UNL     1       3.216  10.767 -14.936  1.00  0.00    +0.213 HD
ENDBRANCH  14  16
BRANCH  15  18
ATOM     18  O   UNL     1       3.602  11.014 -12.872  1.00  0.00    -0.385 OA
ATOM     19  H   UNL     1       2.939  11.722 -13.018  1.00  0.00    +0.211 HD
ENDBRANCH  15  18
ENDBRANCH   7   8
ENDBRANCH   1   7
BRANCH   2  20
ATOM     20  O   UNL     1       3.297   7.576 -10.082  1.00  0.00    -0.385 OA
ATOM     21  H   UNL     1       3.435   7.548 -11.049  1.00  0.00    +0.211 HD
ENDBRANCH   2  20
BRANCH   3  22
ATOM     22  O   UNL     1       2.474   6.623  -7.605  1.00  0.00    -0.387 OA
ATOM     23  H   UNL     1       3.218   7.220  -7.377  1.00  0.00    +0.211 HD
ENDBRANCH   3  22
BRANCH   5  24
ATOM     24  C   UNL     1      -1.321   6.195 -10.149  1.00  0.00    +0.220 C 
BRANCH  24  25
ATOM     25  O   UNL     1      -2.043   6.720 -11.260  1.00  0.00    -0.245 OA
BRANCH  25  26
ATOM     26  S   UNL     1      -3.245   5.819 -11.876  1.00  0.00    +0.397 S 
ATOM     27  O   UNL     1      -2.751   5.025 -12.978  1.00  0.00    -0.169 OA
ATOM     28  O   UNL     1      -4.422   6.650 -11.992  1.00  0.00    -0.169 OA
BRANCH  26  29
ATOM     29  O   UNL     1      -3.569   4.817 -10.659  1.00  0.00    -0.264 OA
ATOM     30  H   UNL     1      -3.199   5.224  -9.849  1.00  0.00    +0.236 HD
ENDBRANCH  26  29
ENDBRANCH  25  26
ENDBRANCH  24  25
ENDBRANCH   5  24
BRANCH   4  31
ATOM     31  O   UNL     1       0.124   5.571  -7.901  1.00  0.00    -0.387 OA
ATOM     32  H   UNL     1       1.062   5.289  -7.991  1.00  0.00    +0.211 HD
ENDBRANCH   4  31
TORSDOF 11
ENDMDL
MODEL 4
REMARK VINA RESULT:    -6.183      2.107      6.271
REMARK INTER + INTRA:         -10.046
REMARK INTER:                  -9.075
REMARK INTRA:                  -0.971
REMARK UNBOUND:                -0.972
REMARK SMILES O=S(=O)(O)OC[C@@H]1O[C@H](O[C@H]2[C@@H]3OC[C@H]2O[C@@H](O)[C@H]3O)[C@@H](O)[C@H](O)[C@@H]1O
REMARK SMILES IDX 9 1 21 2 23 3 25 4 7 5 8 6 10 7 11 8 14 9 15 10 13 11 16 12
REMARK SMILES IDX 12 13 17 14 19 15 18 16 20 18 22 20 24 22 6 24 5 25 2 26
REMARK SMILES IDX 1 27 3 28 4 29 26 31
REMARK H PARENT 18 17 20 19 22 21 24 23 4 30 26 32
ROOT
ATOM      1  C   UNL     1       0.553   7.209  -9.764  1.00  0.00    +0.282 C 
ATOM      2  C   UNL     1       1.472   7.213  -8.527  1.00  0.00    +0.202 C 
ATOM      3  C   UNL     1       2.485   6.091  -8.684  1.00  0.00    +0.179 C 
ATOM      4  C   UNL     1       3.381   6.385  -9.890  1.00  0.00    +0.177 C 
ATOM      5  C   UNL     1       2.618   7.050 -11.061  1.00  0.00    +0.180 C 
ATOM      6  O   UNL     1       1.196   6.835 -10.981  1.00  0.00    -0.341 OA
ENDROOT
BRANCH   1   7
ATOM      7  O   UNL     1      -0.089   8.485  -9.836  1.00  0.00    -0.341 OA
BRANCH   7   8
ATOM      8  C   UNL     1      -1.509   8.390  -9.863  1.00  0.00    +0.184 C 
ATOM      9  C   UNL     1      -3.552   8.069 -10.967  1.00  0.00    +0.195 C 
ATOM     10  C   UNL     1      -2.077   7.683 -11.083  1.00  0.00    +0.179 C 
ATOM     11  O   UNL     1      -3.568   9.396 -10.379  1.00  0.00    -0.370 OA
ATOM     12  O   UNL     1      -1.453   8.172 -12.284  1.00  0.00    -0.342 OA
ATOM     13  C   UNL     1      -2.188   9.737 -10.088  1.00  0.00    +0.184 C 
ATOM     14  C   UNL     1      -1.601   9.563 -12.549  1.00  0.00    +0.279 C 
ATOM     15  C   UNL     1      -1.556  10.454 -11.288  1.00  0.00    +0.202 C 
BRANCH  14  16
ATOM     16  O   UNL     1      -2.822   9.766 -13.257  1.00  0.00    -0.366 OA
ATOM     17  H   UNL     1      -3.271   8.902 -13.222  1.00  0.00    +0.213 HD
ENDBRANCH  14  16
BRANCH  15  18
ATOM     18  O   UNL     1      -2.215  11.705 -11.524  1.00  0.00    -0.385 OA
ATOM     19  H   UNL     1      -1.544  12.377 -11.276  1.00  0.00    +0.211 HD
ENDBRANCH  15  18
ENDBRANCH   7   8
ENDBRANCH   1   7
BRANCH   2  20
ATOM     20  O   UNL     1       0.724   7.008  -7.316  1.00  0.00    -0.385 OA
ATOM     21  H   UNL     1       1.244   7.427  -6.602  1.00  0.00    +0.211 HD
ENDBRANCH   2  20
BRANCH   3  22
ATOM     22  O   UNL     1       3.299   5.981  -7.505  1.00  0.00    -0.387 OA
ATOM     23  H   UNL     1       2.932   6.645  -6.884  1.00  0.00    +0.211 HD
ENDBRANCH   3  22
BRANCH   5  24
ATOM     24  C   UNL     1       2.961   8.531 -11.305  1.00  0.00    +0.220 C 
BRANCH  24  25
ATOM     25  O   UNL     1       2.062   9.049 -12.283  1.00  0.00    -0.245 OA
BRANCH  25  26
ATOM     26  S   UNL     1       2.679   9.976 -13.463  1.00  0.00    +0.397 S 
ATOM     27  O   UNL     1       1.619  10.703 -14.125  1.00  0.00    -0.169 OA
ATOM     28  O   UNL     1       3.649   9.194 -14.195  1.00  0.00    -0.169 OA
BRANCH  26  29
ATOM     29  O   UNL     1       3.554  11.039 -12.629  1.00  0.00    -0.264 OA
ATOM     30  H   UNL     1       3.811  11.749 -13.253  1.00  0.00    +0.236 HD
ENDBRANCH  26  29
ENDBRANCH  25  26
ENDBRANCH  24  25
ENDBRANCH   5  24
BRANCH   4  31
ATOM     31  O   UNL     1       4.491   7.185  -9.467  1.00  0.00    -0.387 OA
ATOM     32  H   UNL     1       5.100   6.554  -9.021  1.00  0.00    +0.211 HD
ENDBRANCH   4  31
TORSDOF 11
ENDMDL
MODEL 5
REMARK VINA RESULT:    -6.114      2.773      6.838
REMARK INTER + INTRA:          -9.945
REMARK INTER:                  -9.048
REMARK INTRA:                  -0.897
REMARK UNBOUND:                -0.972
REMARK SMILES O=S(=O)(O)OC[C@@H]1O[C@H](O[C@H]2[C@@H]3OC[C@H]2O[C@@H](O)[C@H]3O)[C@@H](O)[C@H](O)[C@@H]1O
REMARK SMILES IDX 9 1 21 2 23 3 25 4 7 5 8 6 10 7 11 8 14 9 15 10 13 11 16 12
REMARK SMILES IDX 12 13 17 14 19 15 18 16 20 18 22 20 24 22 6 24 5 25 2 26
REMARK SMILES IDX 1 27 3 28 4 29 26 31
REMARK H PARENT 18 17 20 19 22 21 24 23 4 30 26 32
ROOT
ATOM      1  C   UNL     1      -0.884   7.552 -10.434  1.00  0.00    +0.282 C 
ATOM      2  C   UNL     1      -1.312   7.130  -9.016  1.00  0.00    +0.202 C 
ATOM      3  C   UNL     1      -0.899   5.683  -8.807  1.00  0.00    +0.179 C 
ATOM      4  C   UNL     1       0.629   5.582  -8.846  1.00  0.00    +0.177 C 
ATOM      5  C   UNL     1       1.269   6.538  -9.881  1.00  0.00    +0.180 C 
ATOM      6  O   UNL     1       0.332   6.961 -10.889  1.00  0.00    -0.341 OA
ENDROOT
BRANCH   1   7
ATOM      7  O   UNL     1      -0.865   8.982 -10.479  1.00  0.00    -0.341 OA
BRANCH   7   8
ATOM      8  C   UNL     1      -1.881   9.524 -11.316  1.00  0.00    +0.184 C 
ATOM      9  C   UNL     1      -2.786  10.052 -13.413  1.00  0.00    +0.195 C 
ATOM     10  C   UNL     1      -1.840   9.044 -12.759  1.00  0.00    +0.179 C 
ATOM     11  O   UNL     1      -2.613  11.291 -12.680  1.00  0.00    -0.370 OA
ATOM     12  O   UNL     1      -0.497   9.106 -13.271  1.00  0.00    -0.342 OA
ATOM     13  C   UNL     1      -1.683  11.008 -11.602  1.00  0.00    +0.184 C 
ATOM     14  C   UNL     1       0.114  10.392 -13.283  1.00  0.00    +0.279 C 
ATOM     15  C   UNL     1      -0.242  11.271 -12.063  1.00  0.00    +0.202 C 
BRANCH  14  16
ATOM     16  O   UNL     1      -0.241  11.056 -14.494  1.00  0.00    -0.366 OA
ATOM     17  H   UNL     1      -1.134  10.726 -14.700  1.00  0.00    +0.213 HD
ENDBRANCH  14  16
BRANCH  15  18
ATOM     18  O   UNL     1      -0.063  12.661 -12.366  1.00  0.00    -0.385 OA
ATOM     19  H   UNL     1       0.759  12.681 -12.903  1.00  0.00    +0.211 HD
ENDBRANCH  15  18
ENDBRANCH   7   8
ENDBRANCH   1   7
BRANCH   2  20
ATOM     20  O   UNL     1      -2.734   7.245  -8.840  1.00  0.00    -0.385 OA
ATOM     21  H   UNL     1      -3.081   6.331  -8.837  1.00  0.00    +0.211 HD
ENDBRANCH   2  20
BRANCH   3  22
ATOM     22  O   UNL     1      -1.372   5.205  -7.536  1.00  0.00    -0.387 OA
ATOM     23  H   UNL     1      -1.555   6.015  -7.016  1.00  0.00    +0.211 HD
ENDBRANCH   3  22
BRANCH   5  24
ATOM     24  C   UNL     1       2.042   7.726  -9.281  1.00  0.00    +0.220 C 
BRANCH  24  25
ATOM     25  O   UNL     1       3.418   7.596  -9.632  1.00  0.00    -0.245 OA
BRANCH  25  26
ATOM     26  S   UNL     1       4.247   6.355  -8.994  1.00  0.00    +0.397 S 
ATOM     27  O   UNL     1       4.204   5.220  -9.889  1.00  0.00    -0.169 OA
ATOM     28  O   UNL     1       3.899   6.247  -7.596  1.00  0.00    -0.169 OA
BRANCH  26  29
ATOM     29  O   UNL     1       5.754   6.924  -8.999  1.00  0.00    -0.264 OA
ATOM     30  H   UNL     1       5.761   7.707  -9.586  1.00  0.00    +0.236 HD
ENDBRANCH  26  29
ENDBRANCH  25  26
ENDBRANCH  24  25
ENDBRANCH   5  24
BRANCH   4  31
ATOM     31  O   UNL     1       1.148   5.810  -7.531  1.00  0.00    -0.387 OA
ATOM     32  H   UNL     1       0.746   6.661  -7.246  1.00  0.00    +0.211 HD
ENDBRANCH   4  31
TORSDOF 11
ENDMDL
MODEL 6
REMARK VINA RESULT:    -5.941      3.066      6.914
REMARK INTER + INTRA:          -9.692
REMARK INTER:                  -8.705
REMARK INTRA:                  -0.986
REMARK UNBOUND:                -0.972
REMARK SMILES O=S(=O)(O)OC[C@@H]1O[C@H](O[C@H]2[C@@H]3OC[C@H]2O[C@@H](O)[C@H]3O)[C@@H](O)[C@H](O)[C@@H]1O
REMARK SMILES IDX 9 1 21 2 23 3 25 4 7 5 8 6 10 7 11 8 14 9 15 10 13 11 16 12
REMARK SMILES IDX 12 13 17 14 19 15 18 16 20 18 22 20 24 22 6 24 5 25 2 26
REMARK SMILES IDX 1 27 3 28 4 29 26 31
REMARK H PARENT 18 17 20 19 22 21 24 23 4 30 26 32
ROOT
ATOM      1  C   UNL     1       0.775   8.448 -10.485  1.00  0.00    +0.282 C 
ATOM      2  C   UNL     1       1.762   7.486  -9.797  1.00  0.00    +0.202 C 
ATOM      3  C   UNL     1       1.485   7.511  -8.303  1.00  0.00    +0.179 C 
ATOM      4  C   UNL     1       0.083   6.955  -8.040  1.00  0.00    +0.177 C 
ATOM      5  C   UNL     1      -0.940   7.356  -9.130  1.00  0.00    +0.180 C 
ATOM      6  O   UNL     1      -0.515   8.509  -9.881  1.00  0.00    -0.341 OA
ENDROOT
BRANCH   1   7
ATOM      7  O   UNL     1       0.731   8.109 -11.874  1.00  0.00    -0.341 OA
BRANCH   7   8
ATOM      8  C   UNL     1       1.058   9.204 -12.724  1.00  0.00    +0.184 C 
ATOM      9  C   UNL     1       0.491  11.076 -14.016  1.00  0.00    +0.195 C 
ATOM     10  C   UNL     1      -0.006  10.288 -12.803  1.00  0.00    +0.179 C 
ATOM     11  O   UNL     1       1.112  10.101 -14.894  1.00  0.00    -0.370 OA
ATOM     12  O   UNL     1      -1.306   9.703 -12.997  1.00  0.00    -0.342 OA
ATOM     13  C   UNL     1       1.059   8.827 -14.201  1.00  0.00    +0.184 C 
ATOM     14  C   UNL     1      -1.475   8.920 -14.174  1.00  0.00    +0.279 C 
ATOM     15  C   UNL     1      -0.235   8.083 -14.559  1.00  0.00    +0.202 C 
BRANCH  14  16
ATOM     16  O   UNL     1      -1.846   9.781 -15.247  1.00  0.00    -0.366 OA
ATOM     17  H   UNL     1      -2.803   9.918 -15.131  1.00  0.00    +0.213 HD
ENDBRANCH  14  16
BRANCH  15  18
ATOM     18  O   UNL     1      -0.252   7.758 -15.955  1.00  0.00    -0.385 OA
ATOM     19  H   UNL     1       0.276   6.933 -16.013  1.00  0.00    +0.211 HD
ENDBRANCH  15  18
ENDBRANCH   7   8
ENDBRANCH   1   7
BRANCH   2  20
ATOM     20  O   UNL     1       3.126   7.876 -10.030  1.00  0.00    -0.385 OA
ATOM     21  H   UNL     1       3.678   7.254  -9.517  1.00  0.00    +0.211 HD
ENDBRANCH   2  20
BRANCH   3  22
ATOM     22  O   UNL     1       2.451   6.711  -7.600  1.00  0.00    -0.387 OA
ATOM     23  H   UNL     1       3.169   6.558  -8.250  1.00  0.00    +0.211 HD
ENDBRANCH   3  22
BRANCH   5  24
ATOM     24  C   UNL     1      -1.396   6.209 -10.050  1.00  0.00    +0.220 C 
BRANCH  24  25
ATOM     25  O   UNL     1      -2.126   6.767 -11.141  1.00  0.00    -0.245 OA
BRANCH  25  26
ATOM     26  S   UNL     1      -3.272   5.849 -11.833  1.00  0.00    +0.397 S 
ATOM     27  O   UNL     1      -2.706   5.095 -12.929  1.00  0.00    -0.169 OA
ATOM     28  O   UNL     1      -4.465   6.651 -11.985  1.00  0.00    -0.169 OA
BRANCH  26  29
ATOM     29  O   UNL     1      -3.624   4.810 -10.655  1.00  0.00    -0.264 OA
ATOM     30  H   UNL     1      -2.796   4.651 -10.159  1.00  0.00    +0.236 HD
ENDBRANCH  26  29
ENDBRANCH  25  26
ENDBRANCH  24  25
ENDBRANCH   5  24
BRANCH   4  31
ATOM     31  O   UNL     1       0.162   5.532  -7.895  1.00  0.00    -0.387 OA
ATOM     32  H   UNL     1       1.109   5.352  -7.702  1.00  0.00    +0.211 HD
ENDBRANCH   4  31
TORSDOF 11
ENDMDL
MODEL 7
REMARK VINA RESULT:    -5.933      2.788      7.037
REMARK INTER + INTRA:          -9.680
REMARK INTER:                  -9.187
REMARK INTRA:                  -0.493
REMARK UNBOUND:                -0.972
REMARK SMILES O=S(=O)(O)OC[C@@H]1O[C@H](O[C@H]2[C@@H]3OC[C@H]2O[C@@H](O)[C@H]3O)[C@@H](O)[C@H](O)[C@@H]1O
REMARK SMILES IDX 9 1 21 2 23 3 25 4 7 5 8 6 10 7 11 8 14 9 15 10 13 11 16 12
REMARK SMILES IDX 12 13 17 14 19 15 18 16 20 18 22 20 24 22 6 24 5 25 2 26
REMARK SMILES IDX 1 27 3 28 4 29 26 31
REMARK H PARENT 18 17 20 19 22 21 24 23 4 30 26 32
ROOT
ATOM      1  C   UNL     1      -1.049   7.256 -10.043  1.00  0.00    +0.282 C 
ATOM      2  C   UNL     1      -1.237   6.723  -8.609  1.00  0.00    +0.202 C 
ATOM      3  C   UNL     1      -0.682   5.310  -8.553  1.00  0.00    +0.179 C 
ATOM      4  C   UNL     1       0.827   5.348  -8.806  1.00  0.00    +0.177 C 
ATOM      5  C   UNL     1       1.236   6.411  -9.854  1.00  0.00    +0.180 C 
ATOM      6  O   UNL     1       0.135   6.802 -10.696  1.00  0.00    -0.341 OA
ENDROOT
BRANCH   1   7
ATOM      7  O   UNL     1      -1.154   8.682  -9.996  1.00  0.00    -0.341 OA
BRANCH   7   8
ATOM      8  C   UNL     1      -1.357   9.266 -11.279  1.00  0.00    +0.184 C 
ATOM      9  C   UNL     1      -2.298  10.865 -12.710  1.00  0.00    +0.195 C 
ATOM     10  C   UNL     1      -1.870  10.697 -11.252  1.00  0.00    +0.179 C 
ATOM     11  O   UNL     1      -2.757   9.558 -13.141  1.00  0.00    -0.370 OA
ATOM     12  O   UNL     1      -2.959  10.823 -10.320  1.00  0.00    -0.342 OA
ATOM     13  C   UNL     1      -2.533   8.653 -12.029  1.00  0.00    +0.184 C 
ATOM     14  C   UNL     1      -4.103  10.015 -10.575  1.00  0.00    +0.279 C 
ATOM     15  C   UNL     1      -3.773   8.609 -11.125  1.00  0.00    +0.202 C 
BRANCH  14  16
ATOM     16  O   UNL     1      -4.963  10.710 -11.474  1.00  0.00    -0.366 OA
ATOM     17  H   UNL     1      -5.625  11.135 -10.900  1.00  0.00    +0.213 HD
ENDBRANCH  14  16
BRANCH  15  18
ATOM     18  O   UNL     1      -4.891   8.066 -11.839  1.00  0.00    -0.385 OA
ATOM     19  H   UNL     1      -4.967   8.639 -12.632  1.00  0.00    +0.211 HD
ENDBRANCH  15  18
ENDBRANCH   7   8
ENDBRANCH   1   7
BRANCH   2  20
ATOM     20  O   UNL     1      -2.625   6.701  -8.235  1.00  0.00    -0.385 OA
ATOM     21  H   UNL     1      -3.125   6.964  -9.032  1.00  0.00    +0.211 HD
ENDBRANCH   2  20
BRANCH   3  22
ATOM     22  O   UNL     1      -0.931   4.724  -7.264  1.00  0.00    -0.387 OA
ATOM     23  H   UNL     1      -1.594   4.021  -7.432  1.00  0.00    +0.211 HD
ENDBRANCH   3  22
BRANCH   5  24
ATOM     24  C   UNL     1       1.986   7.631  -9.288  1.00  0.00    +0.220 C 
BRANCH  24  25
ATOM     25  O   UNL     1       3.242   7.192  -8.776  1.00  0.00    -0.245 OA
BRANCH  25  26
ATOM     26  S   UNL     1       4.192   6.309  -9.753  1.00  0.00    +0.397 S 
ATOM     27  O   UNL     1       4.007   6.722 -11.126  1.00  0.00    -0.169 OA
ATOM     28  O   UNL     1       4.101   4.926  -9.346  1.00  0.00    -0.169 OA
BRANCH  26  29
ATOM     29  O   UNL     1       5.664   6.775  -9.297  1.00  0.00    -0.264 OA
ATOM     30  H   UNL     1       6.175   5.961  -9.110  1.00  0.00    +0.236 HD
ENDBRANCH  26  29
ENDBRANCH  25  26
ENDBRANCH  24  25
ENDBRANCH   5  24
BRANCH   4  31
ATOM     31  O   UNL     1       1.507   5.552  -7.562  1.00  0.00    -0.387 OA
ATOM     32  H   UNL     1       2.334   5.026  -7.638  1.00  0.00    +0.211 HD
ENDBRANCH   4  31
TORSDOF 11
ENDMDL
MODEL 8
REMARK VINA RESULT:    -5.910      3.898      8.097
REMARK INTER + INTRA:          -9.646
REMARK INTER:                  -8.073
REMARK INTRA:                  -1.573
REMARK UNBOUND:                -0.972
REMARK SMILES O=S(=O)(O)OC[C@@H]1O[C@H](O[C@H]2[C@@H]3OC[C@H]2O[C@@H](O)[C@H]3O)[C@@H](O)[C@H](O)[C@@H]1O
REMARK SMILES IDX 9 1 21 2 23 3 25 4 7 5 8 6 10 7 11 8 14 9 15 10 13 11 16 12
REMARK SMILES IDX 12 13 17 14 19 15 18 16 20 18 22 20 24 22 6 24 5 25 2 26
REMARK SMILES IDX 1 27 3 28 4 29 26 31
REMARK H PARENT 18 17 20 19 22 21 24 23 4 30 26 32
ROOT
ATOM      1  C   UNL     1      -2.940   7.999 -10.131  1.00  0.00    +0.282 C 
ATOM      2  C   UNL     1      -2.319   7.440  -8.836  1.00  0.00    +0.202 C 
ATOM      3  C   UNL     1      -1.518   6.199  -9.192  1.00  0.00    +0.179 C 
ATOM      4  C   UNL     1      -0.348   6.594 -10.098  1.00  0.00    +0.177 C 
ATOM      5  C   UNL     1      -0.712   7.720 -11.095  1.00  0.00    +0.180 C 
ATOM      6  O   UNL     1      -2.134   7.836 -11.296  1.00  0.00    -0.341 OA
ENDROOT
BRANCH   1   7
ATOM      7  O   UNL     1      -3.309   9.359  -9.888  1.00  0.00    -0.341 OA
BRANCH   7   8
ATOM      8  C   UNL     1      -4.703   9.522  -9.649  1.00  0.00    +0.184 C 
ATOM      9  C   UNL     1      -6.737  10.661  -9.897  1.00  0.00    +0.195 C 
ATOM     10  C   UNL     1      -5.415  10.438 -10.633  1.00  0.00    +0.179 C 
ATOM     11  O   UNL     1      -6.413  10.633  -8.483  1.00  0.00    -0.370 OA
ATOM     12  O   UNL     1      -4.660  11.648 -10.828  1.00  0.00    -0.342 OA
ATOM     13  C   UNL     1      -4.998  10.327  -8.388  1.00  0.00    +0.184 C 
ATOM     14  C   UNL     1      -4.431  12.442  -9.668  1.00  0.00    +0.279 C 
ATOM     15  C   UNL     1      -4.176  11.623  -8.384  1.00  0.00    +0.202 C 
BRANCH  14  16
ATOM     16  O   UNL     1      -5.542  13.317  -9.487  1.00  0.00    -0.366 OA
ATOM     17  H   UNL     1      -5.376  13.747  -8.629  1.00  0.00    +0.213 HD
ENDBRANCH  14  16
BRANCH  15  18
ATOM     18  O   UNL     1      -4.476  12.399  -7.216  1.00  0.00    -0.385 OA
ATOM     19  H   UNL     1      -4.128  13.291  -7.429  1.00  0.00    +0.211 HD
ENDBRANCH  15  18
ENDBRANCH   7   8
ENDBRANCH   1   7
BRANCH   2  20
ATOM     20  O   UNL     1      -3.330   7.091  -7.876  1.00  0.00    -0.385 OA
ATOM     21  H   UNL     1      -3.743   7.932  -7.599  1.00  0.00    +0.211 HD
ENDBRANCH   2  20
BRANCH   3  22
ATOM     22  O   UNL     1      -1.005   5.575  -8.002  1.00  0.00    -0.387 OA
ATOM     23  H   UNL     1      -1.799   5.246  -7.531  1.00  0.00    +0.211 HD
ENDBRANCH   3  22
BRANCH   5  24
ATOM     24  C   UNL     1      -0.061   9.085 -10.804  1.00  0.00    +0.220 C 
BRANCH  24  25
ATOM     25  O   UNL     1       0.234   9.719 -12.046  1.00  0.00    -0.245 OA
BRANCH  25  26
ATOM     26  S   UNL     1      -0.765  10.895 -12.551  1.00  0.00    +0.397 S 
ATOM     27  O   UNL     1      -1.565  10.422 -13.658  1.00  0.00    -0.169 OA
ATOM     28  O   UNL     1      -0.016  12.130 -12.615  1.00  0.00    -0.169 OA
BRANCH  26  29
ATOM     29  O   UNL     1      -1.740  11.073 -11.283  1.00  0.00    -0.264 OA
ATOM     30  H   UNL     1      -2.658  11.029 -11.621  1.00  0.00    +0.236 HD
ENDBRANCH  26  29
ENDBRANCH  25  26
ENDBRANCH  24  25
ENDBRANCH   5  24
BRANCH   4  31
ATOM     31  O   UNL     1       0.773   6.957  -9.285  1.00  0.00    -0.387 OA
ATOM     32  H   UNL     1       0.758   7.940  -9.260  1.00  0.00    +0.211 HD
ENDBRANCH   4  31
TORSDOF 11
ENDMDL
MODEL 9
REMARK VINA RESULT:    -5.747      2.555      4.361
REMARK INTER + INTRA:          -9.407
REMARK INTER:                  -8.382
REMARK INTRA:                  -1.025
REMARK UNBOUND:                -0.972
REMARK SMILES O=S(=O)(O)OC[C@@H]1O[C@H](O[C@H]2[C@@H]3OC[C@H]2O[C@@H](O)[C@H]3O)[C@@H](O)[C@H](O)[C@@H]1O
REMARK SMILES IDX 9 1 21 2 23 3 25 4 7 5 8 6 10 7 11 8 14 9 15 10 13 11 16 12
REMARK SMILES IDX 12 13 17 14 19 15 18 16 20 18 22 20 24 22 6 24 5 25 2 26
REMARK SMILES IDX 1 27 3 28 4 29 26 31
REMARK H PARENT 18 17 20 19 22 21 24 23 4 30 26 32
ROOT
ATOM      1  C   UNL     1      -2.126   6.972 -11.654  1.00  0.00    +0.282 C 
ATOM      2  C   UNL     1      -2.549   5.986 -12.760  1.00  0.00    +0.202 C 
ATOM      3  C   UNL     1      -3.505   6.704 -13.697  1.00  0.00    +0.179 C 
ATOM      4  C   UNL     1      -2.764   7.847 -14.397  1.00  0.00    +0.177 C 
ATOM      5  C   UNL     1      -1.738   8.552 -13.477  1.00  0.00    +0.180 C 
ATOM      6  O   UNL     1      -2.009   8.329 -12.081  1.00  0.00    -0.341 OA
ENDROOT
BRANCH   1   7
ATOM      7  O   UNL     1      -0.932   6.468 -11.050  1.00  0.00    -0.341 OA
BRANCH   7   8
ATOM      8  C   UNL     1      -0.370   7.364 -10.098  1.00  0.00    +0.184 C 
ATOM      9  C   UNL     1       1.410   8.185  -8.812  1.00  0.00    +0.195 C 
ATOM     10  C   UNL     1       1.148   7.460 -10.133  1.00  0.00    +0.179 C 
ATOM     11  O   UNL     1       0.374   7.735  -7.901  1.00  0.00    -0.370 OA
ATOM     12  O   UNL     1       1.733   6.147 -10.188  1.00  0.00    -0.342 OA
ATOM     13  C   UNL     1      -0.498   6.862  -8.664  1.00  0.00    +0.184 C 
ATOM     14  C   UNL     1       1.434   5.277  -9.102  1.00  0.00    +0.279 C 
ATOM     15  C   UNL     1      -0.009   5.410  -8.567  1.00  0.00    +0.202 C 
BRANCH  14  16
ATOM     16  O   UNL     1       2.375   5.511  -8.057  1.00  0.00    -0.366 OA
ATOM     17  H   UNL     1       3.185   5.059  -8.352  1.00  0.00    +0.213 HD
ENDBRANCH  14  16
BRANCH  15  18
ATOM     18  O   UNL     1      -0.095   4.946  -7.213  1.00  0.00    -0.385 OA
ATOM     19  H   UNL     1      -0.156   5.770  -6.684  1.00  0.00    +0.211 HD
ENDBRANCH  15  18
ENDBRANCH   7   8
ENDBRANCH   1   7
BRANCH   2  20
ATOM     20  O   UNL     1      -3.205   4.831 -12.210  1.00  0.00    -0.385 OA
ATOM     21  H   UNL     1      -3.365   5.033 -11.268  1.00  0.00    +0.211 HD
ENDBRANCH   2  20
BRANCH   3  22
ATOM     22  O   UNL     1      -4.015   5.795 -14.686  1.00  0.00    -0.387 OA
ATOM     23  H   UNL     1      -3.466   5.957 -15.482  1.00  0.00    +0.211 HD
ENDBRANCH   3  22
BRANCH   5  24
ATOM     24  C   UNL     1      -0.261   8.289 -13.824  1.00  0.00    +0.220 C 
BRANCH  24  25
ATOM     25  O   UNL     1       0.541   9.256 -13.151  1.00  0.00    -0.245 OA
BRANCH  25  26
ATOM     26  S   UNL     1       2.008   9.583 -13.764  1.00  0.00    +0.397 S 
ATOM     27  O   UNL     1       1.906   9.830 -15.185  1.00  0.00    -0.169 OA
ATOM     28  O   UNL     1       2.951   8.636 -13.213  1.00  0.00    -0.169 OA
BRANCH  26  29
ATOM     29  O   UNL     1       2.365  10.980 -13.050  1.00  0.00    -0.264 OA
ATOM     30  H   UNL     1       1.661  11.614 -13.294  1.00  0.00    +0.236 HD
ENDBRANCH  26  29
ENDBRANCH  25  26
ENDBRANCH  24  25
ENDBRANCH   5  24
BRANCH   4  31
ATOM     31  O   UNL     1      -2.143   7.345 -15.585  1.00  0.00    -0.387 OA
ATOM     32  H   UNL     1      -1.924   6.409 -15.378  1.00  0.00    +0.211 HD
ENDBRANCH   4  31
TORSDOF 11
ENDMDL
