MODEL 1
REMARK VINA RESULT:    -8.929      0.000      0.000
REMARK INTER + INTRA:         -21.340
REMARK INTER:                 -18.324
REMARK INTRA:                  -3.015
REMARK UNBOUND:                -3.015
REMARK SMILES O=C[C@@H](O)[C@@H](O)[C@H](CO)O[C@H]1OC[C@@H](O[C@@H]2OC[C@H](O[C@H]3OC[C@H](O[C@H]4OC[C@H](O)[C@H](O)[C@@H]4O)[C@@H](O)[C@H]3O)[C@H](O)[C@@H]2O)[C@@H](O)[C@H]1O
REMARK SMILES IDX 15 1 16 2 19 3 18 4 39 5 17 6 41 7 20 8 21 9 24 10 23 11
REMARK SMILES IDX 35 12 22 13 37 14 25 15 26 16 28 17 29 18 27 19 31 20 33 21
REMARK SMILES IDX 30 22 32 24 34 26 36 28 38 30 40 32 42 34 14 36 13 37 43 38
REMARK SMILES IDX 12 39 45 40 11 41 44 42 46 44 10 46 7 47 8 48 9 49 5 51 3 52
REMARK SMILES IDX 2 53 1 54 4 55 6 57
REMARK H PARENT 30 23 32 25 34 27 36 29 38 31 40 33 42 35 44 43 46 45 9 50
REMARK H PARENT 4 56 6 58
ROOT
ATOM      1  O   UNL     1       4.680   6.540  -8.188  1.00  0.00    -0.341 OA
ENDROOT
BRANCH   1   2
ATOM      2  C   UNL     1       5.903   6.561  -8.930  1.00  0.00    +0.282 C 
ATOM      3  C   UNL     1       8.444   5.033  -8.879  1.00  0.00    +0.179 C 
ATOM      4  C   UNL     1       7.026   4.447  -8.969  1.00  0.00    +0.198 C 
ATOM      5  C   UNL     1       8.388   6.564  -8.656  1.00  0.00    +0.179 C 
ATOM      6  O   UNL     1       6.134   5.336  -9.636  1.00  0.00    -0.347 OA
ATOM      7  C   UNL     1       7.070   6.981  -8.001  1.00  0.00    +0.202 C 
BRANCH   3   8
ATOM      8  O   UNL     1       9.209   4.454  -7.808  1.00  0.00    -0.341 OA
BRANCH   8   9
ATOM      9  C   UNL     1       8.667   3.236  -7.285  1.00  0.00    +0.282 C 
ATOM     10  C   UNL     1      11.198   2.773  -6.253  1.00  0.00    +0.179 C 
ATOM     11  C   UNL     1      10.486   1.669  -7.043  1.00  0.00    +0.198 C 
ATOM     12  C   UNL     1      10.203   3.460  -5.295  1.00  0.00    +0.179 C 
ATOM     13  O   UNL     1       9.367   2.111  -7.816  1.00  0.00    -0.347 OA
ATOM     14  C   UNL     1       8.744   3.267  -5.744  1.00  0.00    +0.202 C 
BRANCH  10  15
ATOM     15  O   UNL     1      12.312   2.173  -5.577  1.00  0.00    -0.341 OA
BRANCH  15  16
ATOM     16  C   UNL     1      12.230   2.250  -4.148  1.00  0.00    +0.282 C 
ATOM     17  C   UNL     1      12.602   0.923  -2.217  1.00  0.00    +0.198 C 
ATOM     18  C   UNL     1      13.945   1.567  -1.857  1.00  0.00    +0.171 C 
ATOM     19  O   UNL     1      12.402   0.925  -3.628  1.00  0.00    -0.347 OA
ATOM     20  C   UNL     1      14.488   2.418  -3.018  1.00  0.00    +0.179 C 
ATOM     21  C   UNL     1      13.348   3.210  -3.663  1.00  0.00    +0.202 C 
BRANCH  18  22
ATOM     22  O   UNL     1      13.803   2.394  -0.690  1.00  0.00    -0.388 OA
ATOM     23  H   UNL     1      12.844   2.577  -0.598  1.00  0.00    +0.211 HD
ENDBRANCH  18  22
BRANCH  20  24
ATOM     24  O   UNL     1      15.482   3.338  -2.530  1.00  0.00    -0.387 OA
ATOM     25  H   UNL     1      15.978   2.855  -1.835  1.00  0.00    +0.211 HD
ENDBRANCH  20  24
BRANCH  21  26
ATOM     26  O   UNL     1      12.837   4.125  -2.664  1.00  0.00    -0.385 OA
ATOM     27  H   UNL     1      13.212   3.794  -1.822  1.00  0.00    +0.211 HD
ENDBRANCH  21  26
ENDBRANCH  15  16
ENDBRANCH  10  15
BRANCH  12  28
ATOM     28  O   UNL     1      10.516   4.868  -5.226  1.00  0.00    -0.387 OA
ATOM     29  H   UNL     1       9.984   5.227  -4.486  1.00  0.00    +0.211 HD
ENDBRANCH  12  28
BRANCH  14  30
ATOM     30  O   UNL     1       7.929   4.305  -5.180  1.00  0.00    -0.385 OA
ATOM     31  H   UNL     1       7.479   4.755  -5.919  1.00  0.00    +0.211 HD
ENDBRANCH  14  30
ENDBRANCH   8   9
ENDBRANCH   3   8
BRANCH   5  32
ATOM     32  O   UNL     1       9.488   7.005  -7.847  1.00  0.00    -0.387 OA
ATOM     33  H   UNL     1       9.652   6.282  -7.204  1.00  0.00    +0.211 HD
ENDBRANCH   5  32
BRANCH   7  34
ATOM     34  O   UNL     1       6.974   6.352  -6.707  1.00  0.00    -0.385 OA
ATOM     35  H   UNL     1       7.430   5.494  -6.799  1.00  0.00    +0.211 HD
ENDBRANCH   7  34
ENDBRANCH   1   2
BRANCH   1  36
ATOM     36  C   UNL     1       3.510   6.550  -9.009  1.00  0.00    +0.179 C 
ATOM     37  C   UNL     1       2.665   7.789  -8.715  1.00  0.00    +0.198 C 
ATOM     38  C   UNL     1       2.675   5.282  -8.738  1.00  0.00    +0.179 C 
ATOM     39  O   UNL     1       1.526   7.897  -9.577  1.00  0.00    -0.347 OA
ATOM     40  C   UNL     1       1.168   5.530  -8.913  1.00  0.00    +0.202 C 
ATOM     41  C   UNL     1       0.936   6.644  -9.956  1.00  0.00    +0.282 C 
BRANCH  38  42
ATOM     42  O   UNL     1       2.897   4.782  -7.403  1.00  0.00    -0.387 OA
ATOM     43  H   UNL     1       2.107   5.051  -6.885  1.00  0.00    +0.211 HD
ENDBRANCH  38  42
BRANCH  40  44
ATOM     44  O   UNL     1       0.602   5.897  -7.636  1.00  0.00    -0.385 OA
ATOM     45  H   UNL     1       0.749   5.112  -7.068  1.00  0.00    +0.211 HD
ENDBRANCH  40  44
BRANCH  41  46
ATOM     46  O   UNL     1      -0.468   6.811 -10.155  1.00  0.00    -0.341 OA
BRANCH  46  47
ATOM     47  C   UNL     1      -0.851   8.122 -10.602  1.00  0.00    +0.178 C 
BRANCH  47  48
ATOM     48  C   UNL     1      -0.802   8.137 -12.134  1.00  0.00    +0.191 C 
BRANCH  48  49
ATOM     49  O   UNL     1      -2.098   8.342 -12.683  1.00  0.00    -0.394 OA
ATOM     50  H   UNL     1      -2.609   8.834 -12.015  1.00  0.00    +0.210 HD
ENDBRANCH  48  49
ENDBRANCH  47  48
BRANCH  47  51
ATOM     51  C   UNL     1      -2.237   8.494 -10.011  1.00  0.00    +0.181 C 
BRANCH  51  52
ATOM     52  C   UNL     1      -2.391   8.208  -8.507  1.00  0.00    +0.209 C 
BRANCH  52  53
ATOM     53  C   UNL     1      -3.719   8.771  -8.019  1.00  0.00    +0.258 C 
ATOM     54  O   UNL     1      -3.829   9.919  -7.585  1.00  0.00    -0.300 OA
ENDBRANCH  52  53
BRANCH  52  55
ATOM     55  O   UNL     1      -2.361   6.810  -8.219  1.00  0.00    -0.383 OA
ATOM     56  H   UNL     1      -1.459   6.507  -8.453  1.00  0.00    +0.211 HD
ENDBRANCH  52  55
ENDBRANCH  51  52
BRANCH  51  57
ATOM     57  O   UNL     1      -2.476   9.903 -10.227  1.00  0.00    -0.387 OA
ATOM     58  H   UNL     1      -2.788  10.001 -11.154  1.00  0.00    +0.211 HD
ENDBRANCH  51  57
ENDBRANCH  47  51
ENDBRANCH  46  47
ENDBRANCH  41  46
ENDBRANCH   1  36
TORSDOF 24
ENDMDL
MODEL 2
REMARK VINA RESULT:    -8.612      1.554      2.186
REMARK INTER + INTRA:         -20.689
REMARK INTER:                 -18.636
REMARK INTRA:                  -2.053
REMARK UNBOUND:                -3.015
REMARK SMILES O=C[C@@H](O)[C@@H](O)[C@H](CO)O[C@H]1OC[C@@H](O[C@@H]2OC[C@H](O[C@H]3OC[C@H](O[C@H]4OC[C@H](O)[C@H](O)[C@@H]4O)[C@@H](O)[C@H]3O)[C@H](O)[C@@H]2O)[C@@H](O)[C@H]1O
REMARK SMILES IDX 15 1 16 2 19 3 18 4 39 5 17 6 41 7 20 8 21 9 24 10 23 11
REMARK SMILES IDX 35 12 22 13 37 14 25 15 26 16 28 17 29 18 27 19 31 20 33 21
REMARK SMILES IDX 30 22 32 24 34 26 36 28 38 30 40 32 42 34 14 36 13 37 43 38
REMARK SMILES IDX 12 39 45 40 11 41 44 42 46 44 10 46 7 47 8 48 9 49 5 51 3 52
REMARK SMILES IDX 2 53 1 54 4 55 6 57
REMARK H PARENT 30 23 32 25 34 27 36 29 38 31 40 33 42 35 44 43 46 45 9 50
REMARK H PARENT 4 56 6 58
ROOT
ATOM      1  O   UNL     1       5.526   4.840  -9.670  1.00  0.00    -0.341 OA
ENDROOT
BRANCH   1   2
ATOM      2  C   UNL     1       6.483   5.421  -8.780  1.00  0.00    +0.282 C 
ATOM      3  C   UNL     1       8.947   4.495  -7.413  1.00  0.00    +0.179 C 
ATOM      4  C   UNL     1       8.646   4.405  -8.918  1.00  0.00    +0.198 C 
ATOM      5  C   UNL     1       7.707   5.006  -6.640  1.00  0.00    +0.179 C 
ATOM      6  O   UNL     1       7.798   5.467  -9.346  1.00  0.00    -0.347 OA
ATOM      7  C   UNL     1       6.416   4.710  -7.404  1.00  0.00    +0.202 C 
BRANCH   3   8
ATOM      8  O   UNL     1       9.330   3.227  -6.854  1.00  0.00    -0.341 OA
BRANCH   8   9
ATOM      9  C   UNL     1      10.282   2.498  -7.638  1.00  0.00    +0.282 C 
ATOM     10  C   UNL     1      11.611   2.033  -5.251  1.00  0.00    +0.179 C 
ATOM     11  C   UNL     1      12.391   2.549  -6.466  1.00  0.00    +0.198 C 
ATOM     12  C   UNL     1      10.622   0.933  -5.687  1.00  0.00    +0.179 C 
ATOM     13  O   UNL     1      11.579   3.082  -7.516  1.00  0.00    -0.347 OA
ATOM     14  C   UNL     1      10.286   1.022  -7.187  1.00  0.00    +0.202 C 
BRANCH  10  15
ATOM     15  O   UNL     1      12.569   1.581  -4.282  1.00  0.00    -0.341 OA
BRANCH  15  16
ATOM     16  C   UNL     1      13.111   2.631  -3.472  1.00  0.00    +0.282 C 
ATOM     17  C   UNL     1      13.505   3.171  -1.196  1.00  0.00    +0.198 C 
ATOM     18  C   UNL     1      15.005   2.857  -1.231  1.00  0.00    +0.171 C 
ATOM     19  O   UNL     1      12.792   2.338  -2.105  1.00  0.00    -0.347 OA
ATOM     20  C   UNL     1      15.386   2.086  -2.507  1.00  0.00    +0.179 C 
ATOM     21  C   UNL     1      14.643   2.669  -3.712  1.00  0.00    +0.202 C 
BRANCH  18  22
ATOM     22  O   UNL     1      15.769   4.073  -1.167  1.00  0.00    -0.388 OA
ATOM     23  H   UNL     1      15.208   4.772  -1.568  1.00  0.00    +0.211 HD
ENDBRANCH  18  22
BRANCH  20  24
ATOM     24  O   UNL     1      16.803   2.186  -2.736  1.00  0.00    -0.387 OA
ATOM     25  H   UNL     1      16.907   2.676  -3.578  1.00  0.00    +0.211 HD
ENDBRANCH  20  24
BRANCH  21  26
ATOM     26  O   UNL     1      15.099   4.032  -3.883  1.00  0.00    -0.385 OA
ATOM     27  H   UNL     1      16.071   3.950  -3.971  1.00  0.00    +0.211 HD
ENDBRANCH  21  26
ENDBRANCH  15  16
ENDBRANCH  10  15
BRANCH  12  28
ATOM     28  O   UNL     1       9.415   1.052  -4.903  1.00  0.00    -0.387 OA
ATOM     29  H   UNL     1       8.869   1.731  -5.350  1.00  0.00    +0.211 HD
ENDBRANCH  12  28
BRANCH  14  30
ATOM     30  O   UNL     1       9.030   0.375  -7.434  1.00  0.00    -0.385 OA
ATOM     31  H   UNL     1       8.365   1.074  -7.574  1.00  0.00    +0.211 HD
ENDBRANCH  14  30
ENDBRANCH   8   9
ENDBRANCH   3   8
BRANCH   5  32
ATOM     32  O   UNL     1       7.639   4.415  -5.333  1.00  0.00    -0.387 OA
ATOM     33  H   UNL     1       8.475   4.665  -4.885  1.00  0.00    +0.211 HD
ENDBRANCH   5  32
BRANCH   7  34
ATOM     34  O   UNL     1       6.277   3.282  -7.549  1.00  0.00    -0.385 OA
ATOM     35  H   UNL     1       6.331   2.921  -6.643  1.00  0.00    +0.211 HD
ENDBRANCH   7  34
ENDBRANCH   1   2
BRANCH   1  36
ATOM     36  C   UNL     1       4.394   5.676  -9.921  1.00  0.00    +0.179 C 
ATOM     37  C   UNL     1       4.574   7.033  -9.241  1.00  0.00    +0.198 C 
ATOM     38  C   UNL     1       3.118   4.996  -9.383  1.00  0.00    +0.179 C 
ATOM     39  O   UNL     1       3.509   7.944  -9.538  1.00  0.00    -0.347 OA
ATOM     40  C   UNL     1       2.077   6.018  -8.897  1.00  0.00    +0.202 C 
ATOM     41  C   UNL     1       2.219   7.334  -9.691  1.00  0.00    +0.282 C 
BRANCH  38  42
ATOM     42  O   UNL     1       3.418   4.103  -8.291  1.00  0.00    -0.387 OA
ATOM     43  H   UNL     1       4.047   3.442  -8.654  1.00  0.00    +0.211 HD
ENDBRANCH  38  42
BRANCH  40  44
ATOM     44  O   UNL     1       2.272   6.249  -7.484  1.00  0.00    -0.385 OA
ATOM     45  H   UNL     1       2.297   5.351  -7.091  1.00  0.00    +0.211 HD
ENDBRANCH  40  44
BRANCH  41  46
ATOM     46  O   UNL     1       1.200   8.242  -9.274  1.00  0.00    -0.341 OA
BRANCH  46  47
ATOM     47  C   UNL     1       0.212   8.525 -10.277  1.00  0.00    +0.178 C 
BRANCH  47  48
ATOM     48  C   UNL     1       0.892   8.461 -11.649  1.00  0.00    +0.191 C 
BRANCH  48  49
ATOM     49  O   UNL     1       1.047   9.761 -12.203  1.00  0.00    -0.394 OA
ATOM     50  H   UNL     1       1.929  10.075 -11.935  1.00  0.00    +0.210 HD
ENDBRANCH  48  49
ENDBRANCH  47  48
BRANCH  47  51
ATOM     51  C   UNL     1      -0.988   7.554 -10.121  1.00  0.00    +0.181 C 
BRANCH  51  52
ATOM     52  C   UNL     1      -1.507   7.400  -8.682  1.00  0.00    +0.209 C 
BRANCH  52  53
ATOM     53  C   UNL     1      -2.948   7.889  -8.609  1.00  0.00    +0.258 C 
ATOM     54  O   UNL     1      -3.239   9.035  -8.262  1.00  0.00    -0.300 OA
ENDBRANCH  52  53
BRANCH  52  55
ATOM     55  O   UNL     1      -1.469   6.044  -8.237  1.00  0.00    -0.383 OA
ATOM     56  H   UNL     1      -2.346   5.868  -7.838  1.00  0.00    +0.211 HD
ENDBRANCH  52  55
ENDBRANCH  51  52
BRANCH  51  57
ATOM     57  O   UNL     1      -2.080   8.020 -10.945  1.00  0.00    -0.387 OA
ATOM     58  H   UNL     1      -2.804   8.287 -10.336  1.00  0.00    +0.211 HD
ENDBRANCH  51  57
ENDBRANCH  47  51
ENDBRANCH  46  47
ENDBRANCH  41  46
ENDBRANCH   1  36
TORSDOF 24
ENDMDL
MODEL 3
REMARK VINA RESULT:    -7.823      2.401     14.122
REMARK INTER + INTRA:         -19.070
REMARK INTER:                 -16.900
REMARK INTRA:                  -2.170
REMARK UNBOUND:                -3.015
REMARK SMILES O=C[C@@H](O)[C@@H](O)[C@H](CO)O[C@H]1OC[C@@H](O[C@@H]2OC[C@H](O[C@H]3OC[C@H](O[C@H]4OC[C@H](O)[C@H](O)[C@@H]4O)[C@@H](O)[C@H]3O)[C@H](O)[C@@H]2O)[C@@H](O)[C@H]1O
REMARK SMILES IDX 15 1 16 2 19 3 18 4 39 5 17 6 41 7 20 8 21 9 24 10 23 11
REMARK SMILES IDX 35 12 22 13 37 14 25 15 26 16 28 17 29 18 27 19 31 20 33 21
REMARK SMILES IDX 30 22 32 24 34 26 36 28 38 30 40 32 42 34 14 36 13 37 43 38
REMARK SMILES IDX 12 39 45 40 11 41 44 42 46 44 10 46 7 47 8 48 9 49 5 51 3 52
REMARK SMILES IDX 2 53 1 54 4 55 6 57
REMARK H PARENT 30 23 32 25 34 27 36 29 38 31 40 33 42 35 44 43 46 45 9 50
REMARK H PARENT 4 56 6 58
ROOT
ATOM      1  O   UNL     1       4.531   6.231  -9.333  1.00  0.00    -0.341 OA
ENDROOT
BRANCH   1   2
ATOM      2  C   UNL     1       3.491   7.103  -8.882  1.00  0.00    +0.282 C 
ATOM      3  C   UNL     1       0.536   7.184  -9.119  1.00  0.00    +0.179 C 
ATOM      4  C   UNL     1       1.381   6.004  -8.612  1.00  0.00    +0.198 C 
ATOM      5  C   UNL     1       1.446   8.315  -9.656  1.00  0.00    +0.179 C 
ATOM      6  O   UNL     1       2.581   6.452  -7.987  1.00  0.00    -0.347 OA
ATOM      7  C   UNL     1       2.804   7.770 -10.101  1.00  0.00    +0.202 C 
BRANCH   3   8
ATOM      8  O   UNL     1      -0.366   6.799 -10.170  1.00  0.00    -0.341 OA
BRANCH   8   9
ATOM      9  C   UNL     1      -1.587   6.205  -9.716  1.00  0.00    +0.282 C 
ATOM     10  C   UNL     1      -2.563   8.794  -9.545  1.00  0.00    +0.179 C 
ATOM     11  C   UNL     1      -2.736   7.838  -8.359  1.00  0.00    +0.198 C 
ATOM     12  C   UNL     1      -2.862   8.055 -10.866  1.00  0.00    +0.179 C 
ATOM     13  O   UNL     1      -1.910   6.671  -8.405  1.00  0.00    -0.347 OA
ATOM     14  C   UNL     1      -2.714   6.530 -10.719  1.00  0.00    +0.202 C 
BRANCH  10  15
ATOM     15  O   UNL     1      -3.423   9.922  -9.321  1.00  0.00    -0.341 OA
BRANCH  15  16
ATOM     16  C   UNL     1      -4.810   9.578  -9.216  1.00  0.00    +0.282 C 
ATOM     17  C   UNL     1      -6.659   9.849  -7.756  1.00  0.00    +0.198 C 
ATOM     18  C   UNL     1      -7.324  10.964  -8.570  1.00  0.00    +0.171 C 
ATOM     19  O   UNL     1      -5.242   9.901  -7.888  1.00  0.00    -0.347 OA
ATOM     20  C   UNL     1      -6.363  11.532  -9.629  1.00  0.00    +0.179 C 
ATOM     21  C   UNL     1      -5.579  10.395 -10.288  1.00  0.00    +0.202 C 
BRANCH  18  22
ATOM     22  O   UNL     1      -8.506  10.468  -9.220  1.00  0.00    -0.388 OA
ATOM     23  H   UNL     1      -8.199   9.841  -9.910  1.00  0.00    +0.211 HD
ENDBRANCH  18  22
BRANCH  20  24
ATOM     24  O   UNL     1      -7.109  12.236 -10.640  1.00  0.00    -0.387 OA
ATOM     25  H   UNL     1      -6.509  12.317 -11.411  1.00  0.00    +0.211 HD
ENDBRANCH  20  24
BRANCH  21  26
ATOM     26  O   UNL     1      -6.533   9.555 -10.981  1.00  0.00    -0.385 OA
ATOM     27  H   UNL     1      -6.214   8.644 -10.816  1.00  0.00    +0.211 HD
ENDBRANCH  21  26
ENDBRANCH  15  16
ENDBRANCH  10  15
BRANCH  12  28
ATOM     28  O   UNL     1      -1.966   8.542 -11.887  1.00  0.00    -0.387 OA
ATOM     29  H   UNL     1      -1.507   7.753 -12.242  1.00  0.00    +0.211 HD
ENDBRANCH  12  28
BRANCH  14  30
ATOM     30  O   UNL     1      -2.478   5.947 -12.008  1.00  0.00    -0.385 OA
ATOM     31  H   UNL     1      -1.512   5.867 -12.119  1.00  0.00    +0.211 HD
ENDBRANCH  14  30
ENDBRANCH   8   9
ENDBRANCH   3   8
BRANCH   5  32
ATOM     32  O   UNL     1       0.820   8.999 -10.752  1.00  0.00    -0.387 OA
ATOM     33  H   UNL     1       1.554   9.367 -11.289  1.00  0.00    +0.211 HD
ENDBRANCH   5  32
BRANCH   7  34
ATOM     34  O   UNL     1       2.600   6.832 -11.177  1.00  0.00    -0.385 OA
ATOM     35  H   UNL     1       3.450   6.362 -11.278  1.00  0.00    +0.211 HD
ENDBRANCH   7  34
ENDBRANCH   1   2
BRANCH   1  36
ATOM     36  C   UNL     1       5.432   5.829  -8.299  1.00  0.00    +0.179 C 
ATOM     37  C   UNL     1       6.778   5.421  -8.895  1.00  0.00    +0.198 C 
ATOM     38  C   UNL     1       4.831   4.639  -7.522  1.00  0.00    +0.179 C 
ATOM     39  O   UNL     1       7.749   5.096  -7.893  1.00  0.00    -0.347 OA
ATOM     40  C   UNL     1       5.915   3.687  -6.988  1.00  0.00    +0.202 C 
ATOM     41  C   UNL     1       7.216   4.471  -6.716  1.00  0.00    +0.282 C 
BRANCH  38  42
ATOM     42  O   UNL     1       3.926   3.875  -8.346  1.00  0.00    -0.387 OA
ATOM     43  H   UNL     1       3.683   4.467  -9.091  1.00  0.00    +0.211 HD
ENDBRANCH  38  42
BRANCH  40  44
ATOM     44  O   UNL     1       6.140   2.642  -7.960  1.00  0.00    -0.385 OA
ATOM     45  H   UNL     1       5.594   1.892  -7.644  1.00  0.00    +0.211 HD
ENDBRANCH  40  44
BRANCH  41  46
ATOM     46  O   UNL     1       8.186   3.584  -6.157  1.00  0.00    -0.341 OA
BRANCH  46  47
ATOM     47  C   UNL     1       9.534   3.833  -6.588  1.00  0.00    +0.178 C 
BRANCH  47  48
ATOM     48  C   UNL     1      10.401   4.051  -5.344  1.00  0.00    +0.191 C 
BRANCH  48  49
ATOM     49  O   UNL     1       9.713   3.646  -4.167  1.00  0.00    -0.394 OA
ATOM     50  H   UNL     1      10.030   4.222  -3.447  1.00  0.00    +0.210 HD
ENDBRANCH  48  49
ENDBRANCH  47  48
BRANCH  47  51
ATOM     51  C   UNL     1      10.017   2.673  -7.499  1.00  0.00    +0.181 C 
BRANCH  51  52
ATOM     52  C   UNL     1      11.268   1.937  -6.991  1.00  0.00    +0.209 C 
BRANCH  52  53
ATOM     53  C   UNL     1      10.881   0.534  -6.540  1.00  0.00    +0.258 C 
ATOM     54  O   UNL     1      10.162   0.332  -5.560  1.00  0.00    -0.300 OA
ENDBRANCH  52  53
BRANCH  52  55
ATOM     55  O   UNL     1      12.273   1.824  -8.000  1.00  0.00    -0.383 OA
ATOM     56  H   UNL     1      11.932   2.317  -8.775  1.00  0.00    +0.211 HD
ENDBRANCH  52  55
ENDBRANCH  51  52
BRANCH  51  57
ATOM     57  O   UNL     1       8.950   1.706  -7.633  1.00  0.00    -0.387 OA
ATOM     58  H   UNL     1       8.309   1.886  -6.910  1.00  0.00    +0.211 HD
ENDBRANCH  51  57
ENDBRANCH  47  51
ENDBRANCH  46  47
ENDBRANCH  41  46
ENDBRANCH   1  36
TORSDOF 24
ENDMDL
MODEL 4
REMARK VINA RESULT:    -7.542      1.863      2.429
REMARK INTER + INTRA:         -18.493
REMARK INTER:                 -16.126
REMARK INTRA:                  -2.367
REMARK UNBOUND:                -3.015
REMARK SMILES O=C[C@@H](O)[C@@H](O)[C@H](CO)O[C@H]1OC[C@@H](O[C@@H]2OC[C@H](O[C@H]3OC[C@H](O[C@H]4OC[C@H](O)[C@H](O)[C@@H]4O)[C@@H](O)[C@H]3O)[C@H](O)[C@@H]2O)[C@@H](O)[C@H]1O
REMARK SMILES IDX 15 1 16 2 19 3 18 4 39 5 17 6 41 7 20 8 21 9 24 10 23 11
REMARK SMILES IDX 35 12 22 13 37 14 25 15 26 16 28 17 29 18 27 19 31 20 33 21
REMARK SMILES IDX 30 22 32 24 34 26 36 28 38 30 40 32 42 34 14 36 13 37 43 38
REMARK SMILES IDX 12 39 45 40 11 41 44 42 46 44 10 46 7 47 8 48 9 49 5 51 3 52
REMARK SMILES IDX 2 53 1 54 4 55 6 57
REMARK H PARENT 30 23 32 25 34 27 36 29 38 31 40 33 42 35 44 43 46 45 9 50
REMARK H PARENT 4 56 6 58
ROOT
ATOM      1  O   UNL     1       4.598   6.488  -8.133  1.00  0.00    -0.341 OA
ENDROOT
BRANCH   1   2
ATOM      2  C   UNL     1       5.686   5.779  -8.732  1.00  0.00    +0.282 C 
ATOM      3  C   UNL     1       7.811   3.946  -7.772  1.00  0.00    +0.179 C 
ATOM      4  C   UNL     1       6.299   3.796  -7.539  1.00  0.00    +0.198 C 
ATOM      5  C   UNL     1       8.124   5.295  -8.462  1.00  0.00    +0.179 C 
ATOM      6  O   UNL     1       5.546   4.358  -8.610  1.00  0.00    -0.347 OA
ATOM      7  C   UNL     1       7.030   6.327  -8.185  1.00  0.00    +0.202 C 
BRANCH   3   8
ATOM      8  O   UNL     1       8.562   3.885  -6.548  1.00  0.00    -0.341 OA
BRANCH   8   9
ATOM      9  C   UNL     1       8.811   2.558  -6.071  1.00  0.00    +0.282 C 
ATOM     10  C   UNL     1      11.484   3.071  -6.599  1.00  0.00    +0.179 C 
ATOM     11  C   UNL     1      10.844   1.774  -7.110  1.00  0.00    +0.198 C 
ATOM     12  C   UNL     1      11.025   3.351  -5.153  1.00  0.00    +0.179 C 
ATOM     13  O   UNL     1       9.414   1.765  -7.095  1.00  0.00    -0.347 OA
ATOM     14  C   UNL     1       9.708   2.629  -4.817  1.00  0.00    +0.202 C 
BRANCH  10  15
ATOM     15  O   UNL     1      12.907   2.930  -6.724  1.00  0.00    -0.341 OA
BRANCH  15  16
ATOM     16  C   UNL     1      13.366   1.578  -6.592  1.00  0.00    +0.282 C 
ATOM     17  C   UNL     1      14.865   0.046  -7.609  1.00  0.00    +0.198 C 
ATOM     18  C   UNL     1      15.958   0.185  -6.544  1.00  0.00    +0.171 C 
ATOM     19  O   UNL     1      14.143   1.265  -7.756  1.00  0.00    -0.347 OA
ATOM     20  C   UNL     1      15.702   1.400  -5.634  1.00  0.00    +0.179 C 
ATOM     21  C   UNL     1      14.212   1.493  -5.294  1.00  0.00    +0.202 C 
BRANCH  18  22
ATOM     22  O   UNL     1      16.023  -1.004  -5.739  1.00  0.00    -0.388 OA
ATOM     23  H   UNL     1      15.922  -0.712  -4.808  1.00  0.00    +0.211 HD
ENDBRANCH  18  22
BRANCH  20  24
ATOM     24  O   UNL     1      16.454   1.266  -4.414  1.00  0.00    -0.387 OA
ATOM     25  H   UNL     1      16.023   0.546  -3.908  1.00  0.00    +0.211 HD
ENDBRANCH  20  24
BRANCH  21  26
ATOM     26  O   UNL     1      13.865   0.309  -4.536  1.00  0.00    -0.385 OA
ATOM     27  H   UNL     1      12.934   0.131  -4.784  1.00  0.00    +0.211 HD
ENDBRANCH  21  26
ENDBRANCH  15  16
ENDBRANCH  10  15
BRANCH  12  28
ATOM     28  O   UNL     1      10.864   4.775  -4.982  1.00  0.00    -0.387 OA
ATOM     29  H   UNL     1       9.957   4.983  -5.286  1.00  0.00    +0.211 HD
ENDBRANCH  12  28
BRANCH  14  30
ATOM     30  O   UNL     1       9.062   3.298  -3.725  1.00  0.00    -0.385 OA
ATOM     31  H   UNL     1       8.858   4.205  -4.019  1.00  0.00    +0.211 HD
ENDBRANCH  14  30
ENDBRANCH   8   9
ENDBRANCH   3   8
BRANCH   5  32
ATOM     32  O   UNL     1       9.392   5.811  -8.028  1.00  0.00    -0.387 OA
ATOM     33  H   UNL     1       9.271   6.051  -7.084  1.00  0.00    +0.211 HD
ENDBRANCH   5  32
BRANCH   7  34
ATOM     34  O   UNL     1       6.968   6.572  -6.766  1.00  0.00    -0.385 OA
ATOM     35  H   UNL     1       7.617   7.281  -6.595  1.00  0.00    +0.211 HD
ENDBRANCH   7  34
ENDBRANCH   1   2
BRANCH   1  36
ATOM     36  C   UNL     1       3.464   6.630  -8.991  1.00  0.00    +0.179 C 
ATOM     37  C   UNL     1       2.715   7.924  -8.673  1.00  0.00    +0.198 C 
ATOM     38  C   UNL     1       2.516   5.427  -8.800  1.00  0.00    +0.179 C 
ATOM     39  O   UNL     1       1.621   8.161  -9.567  1.00  0.00    -0.347 OA
ATOM     40  C   UNL     1       1.042   5.810  -9.015  1.00  0.00    +0.202 C 
ATOM     41  C   UNL     1       0.942   6.980 -10.017  1.00  0.00    +0.282 C 
BRANCH  38  42
ATOM     42  O   UNL     1       2.646   4.859  -7.480  1.00  0.00    -0.387 OA
ATOM     43  H   UNL     1       3.075   5.553  -6.934  1.00  0.00    +0.211 HD
ENDBRANCH  38  42
BRANCH  40  44
ATOM     44  O   UNL     1       0.463   6.175  -7.743  1.00  0.00    -0.385 OA
ATOM     45  H   UNL     1       1.225   6.475  -7.204  1.00  0.00    +0.211 HD
ENDBRANCH  40  44
BRANCH  41  46
ATOM     46  O   UNL     1      -0.434   7.273 -10.255  1.00  0.00    -0.341 OA
BRANCH  46  47
ATOM     47  C   UNL     1      -0.784   8.655 -10.078  1.00  0.00    +0.178 C 
BRANCH  47  48
ATOM     48  C   UNL     1      -0.801   9.325 -11.456  1.00  0.00    +0.191 C 
BRANCH  48  49
ATOM     49  O   UNL     1       0.401  10.048 -11.686  1.00  0.00    -0.394 OA
ATOM     50  H   UNL     1       0.488  10.684 -10.953  1.00  0.00    +0.210 HD
ENDBRANCH  48  49
ENDBRANCH  47  48
BRANCH  47  51
ATOM     51  C   UNL     1      -2.128   8.762  -9.308  1.00  0.00    +0.181 C 
BRANCH  51  52
ATOM     52  C   UNL     1      -3.115   9.793  -9.880  1.00  0.00    +0.209 C 
BRANCH  52  53
ATOM     53  C   UNL     1      -4.320   9.068 -10.468  1.00  0.00    +0.258 C 
ATOM     54  O   UNL     1      -4.298   8.552 -11.587  1.00  0.00    -0.300 OA
ENDBRANCH  52  53
BRANCH  52  55
ATOM     55  O   UNL     1      -3.581  10.704  -8.884  1.00  0.00    -0.383 OA
ATOM     56  H   UNL     1      -4.117  10.169  -8.262  1.00  0.00    +0.211 HD
ENDBRANCH  52  55
ENDBRANCH  51  52
BRANCH  51  57
ATOM     57  O   UNL     1      -2.776   7.469  -9.313  1.00  0.00    -0.387 OA
ATOM     58  H   UNL     1      -2.658   7.094 -10.214  1.00  0.00    +0.211 HD
ENDBRANCH  51  57
ENDBRANCH  47  51
ENDBRANCH  46  47
ENDBRANCH  41  46
ENDBRANCH   1  36
TORSDOF 24
ENDMDL
MODEL 5
REMARK VINA RESULT:    -7.489      4.185     15.072
REMARK INTER + INTRA:         -18.386
REMARK INTER:                 -16.032
REMARK INTRA:                  -2.354
REMARK UNBOUND:                -3.015
REMARK SMILES O=C[C@@H](O)[C@@H](O)[C@H](CO)O[C@H]1OC[C@@H](O[C@@H]2OC[C@H](O[C@H]3OC[C@H](O[C@H]4OC[C@H](O)[C@H](O)[C@@H]4O)[C@@H](O)[C@H]3O)[C@H](O)[C@@H]2O)[C@@H](O)[C@H]1O
REMARK SMILES IDX 15 1 16 2 19 3 18 4 39 5 17 6 41 7 20 8 21 9 24 10 23 11
REMARK SMILES IDX 35 12 22 13 37 14 25 15 26 16 28 17 29 18 27 19 31 20 33 21
REMARK SMILES IDX 30 22 32 24 34 26 36 28 38 30 40 32 42 34 14 36 13 37 43 38
REMARK SMILES IDX 12 39 45 40 11 41 44 42 46 44 10 46 7 47 8 48 9 49 5 51 3 52
REMARK SMILES IDX 2 53 1 54 4 55 6 57
REMARK H PARENT 30 23 32 25 34 27 36 29 38 31 40 33 42 35 44 43 46 45 9 50
REMARK H PARENT 4 56 6 58
ROOT
ATOM      1  O   UNL     1       0.560   7.593  -9.593  1.00  0.00    -0.341 OA
ENDROOT
BRANCH   1   2
ATOM      2  C   UNL     1      -0.328   7.566 -10.715  1.00  0.00    +0.282 C 
ATOM      3  C   UNL     1      -2.170   9.495 -12.011  1.00  0.00    +0.179 C 
ATOM      4  C   UNL     1      -0.683   9.721 -11.696  1.00  0.00    +0.198 C 
ATOM      5  C   UNL     1      -2.655   8.152 -11.415  1.00  0.00    +0.179 C 
ATOM      6  O   UNL     1       0.051   8.500 -11.734  1.00  0.00    -0.347 OA
ATOM      7  C   UNL     1      -1.791   7.728 -10.227  1.00  0.00    +0.202 C 
BRANCH   3   8
ATOM      8  O   UNL     1      -3.005  10.543 -11.490  1.00  0.00    -0.341 OA
BRANCH   8   9
ATOM      9  C   UNL     1      -3.749  11.258 -12.483  1.00  0.00    +0.282 C 
ATOM     10  C   UNL     1      -5.785  11.374 -10.606  1.00  0.00    +0.179 C 
ATOM     11  C   UNL     1      -6.094  10.911 -12.035  1.00  0.00    +0.198 C 
ATOM     12  C   UNL     1      -4.840  12.593 -10.640  1.00  0.00    +0.179 C 
ATOM     13  O   UNL     1      -4.947  10.554 -12.811  1.00  0.00    -0.347 OA
ATOM     14  C   UNL     1      -4.057  12.678 -11.962  1.00  0.00    +0.202 C 
BRANCH  10  15
ATOM     15  O   UNL     1      -7.037  11.646  -9.959  1.00  0.00    -0.341 OA
BRANCH  15  16
ATOM     16  C   UNL     1      -6.902  12.064  -8.595  1.00  0.00    +0.282 C 
ATOM     17  C   UNL     1      -7.301  13.947  -7.208  1.00  0.00    +0.198 C 
ATOM     18  C   UNL     1      -8.584  13.393  -6.579  1.00  0.00    +0.171 C 
ATOM     19  O   UNL     1      -7.148  13.476  -8.543  1.00  0.00    -0.347 OA
ATOM     20  C   UNL     1      -9.105  12.170  -7.354  1.00  0.00    +0.179 C 
ATOM     21  C   UNL     1      -7.935  11.268  -7.754  1.00  0.00    +0.202 C 
BRANCH  18  22
ATOM     22  O   UNL     1      -8.347  13.021  -5.210  1.00  0.00    -0.388 OA
ATOM     23  H   UNL     1      -7.396  13.191  -5.040  1.00  0.00    +0.211 HD
ENDBRANCH  18  22
BRANCH  20  24
ATOM     24  O   UNL     1     -10.016  11.419  -6.530  1.00  0.00    -0.387 OA
ATOM     25  H   UNL     1     -10.730  11.111  -7.128  1.00  0.00    +0.211 HD
ENDBRANCH  20  24
BRANCH  21  26
ATOM     26  O   UNL     1      -7.330  10.776  -6.534  1.00  0.00    -0.385 OA
ATOM     27  H   UNL     1      -7.469   9.807  -6.572  1.00  0.00    +0.211 HD
ENDBRANCH  21  26
ENDBRANCH  15  16
ENDBRANCH  10  15
BRANCH  12  28
ATOM     28  O   UNL     1      -3.924  12.506  -9.528  1.00  0.00    -0.387 OA
ATOM     29  H   UNL     1      -4.069  13.315  -8.995  1.00  0.00    +0.211 HD
ENDBRANCH  12  28
BRANCH  14  30
ATOM     30  O   UNL     1      -2.866  13.453 -11.763  1.00  0.00    -0.385 OA
ATOM     31  H   UNL     1      -2.283  12.944 -11.170  1.00  0.00    +0.211 HD
ENDBRANCH  14  30
ENDBRANCH   8   9
ENDBRANCH   3   8
BRANCH   5  32
ATOM     32  O   UNL     1      -4.028   8.240 -11.004  1.00  0.00    -0.387 OA
ATOM     33  H   UNL     1      -4.366   7.318 -11.009  1.00  0.00    +0.211 HD
ENDBRANCH   5  32
BRANCH   7  34
ATOM     34  O   UNL     1      -1.900   8.725  -9.191  1.00  0.00    -0.385 OA
ATOM     35  H   UNL     1      -1.505   8.319  -8.396  1.00  0.00    +0.211 HD
ENDBRANCH   7  34
ENDBRANCH   1   2
BRANCH   1  36
ATOM     36  C   UNL     1       1.555   6.569  -9.625  1.00  0.00    +0.179 C 
ATOM     37  C   UNL     1       2.075   6.289  -8.215  1.00  0.00    +0.198 C 
ATOM     38  C   UNL     1       2.727   7.012 -10.527  1.00  0.00    +0.179 C 
ATOM     39  O   UNL     1       3.010   5.204  -8.178  1.00  0.00    -0.347 OA
ATOM     40  C   UNL     1       4.074   6.442 -10.051  1.00  0.00    +0.202 C 
ATOM     41  C   UNL     1       3.851   5.092  -9.336  1.00  0.00    +0.282 C 
BRANCH  38  42
ATOM     42  O   UNL     1       2.838   8.449 -10.576  1.00  0.00    -0.387 OA
ATOM     43  H   UNL     1       3.793   8.636 -10.715  1.00  0.00    +0.211 HD
ENDBRANCH  38  42
BRANCH  40  44
ATOM     44  O   UNL     1       4.698   7.395  -9.163  1.00  0.00    -0.385 OA
ATOM     45  H   UNL     1       4.701   8.235  -9.669  1.00  0.00    +0.211 HD
ENDBRANCH  40  44
BRANCH  41  46
ATOM     46  O   UNL     1       5.117   4.547  -8.965  1.00  0.00    -0.341 OA
BRANCH  46  47
ATOM     47  C   UNL     1       5.282   4.343  -7.552  1.00  0.00    +0.178 C 
BRANCH  47  48
ATOM     48  C   UNL     1       4.660   2.990  -7.189  1.00  0.00    +0.191 C 
BRANCH  48  49
ATOM     49  O   UNL     1       4.397   2.908  -5.794  1.00  0.00    -0.394 OA
ATOM     50  H   UNL     1       5.258   2.789  -5.354  1.00  0.00    +0.210 HD
ENDBRANCH  48  49
ENDBRANCH  47  48
BRANCH  47  51
ATOM     51  C   UNL     1       6.783   4.469  -7.175  1.00  0.00    +0.181 C 
BRANCH  51  52
ATOM     52  C   UNL     1       7.308   5.913  -7.107  1.00  0.00    +0.209 C 
BRANCH  52  53
ATOM     53  C   UNL     1       8.114   6.218  -8.363  1.00  0.00    +0.258 C 
ATOM     54  O   UNL     1       7.584   6.576  -9.416  1.00  0.00    -0.300 OA
ENDBRANCH  52  53
BRANCH  52  55
ATOM     55  O   UNL     1       6.250   6.867  -7.009  1.00  0.00    -0.383 OA
ATOM     56  H   UNL     1       6.201   7.118  -6.063  1.00  0.00    +0.211 HD
ENDBRANCH  52  55
ENDBRANCH  51  52
BRANCH  51  57
ATOM     57  O   UNL     1       6.997   3.853  -5.886  1.00  0.00    -0.387 OA
ATOM     58  H   UNL     1       7.927   4.041  -5.629  1.00  0.00    +0.211 HD
ENDBRANCH  51  57
ENDBRANCH  47  51
ENDBRANCH  46  47
ENDBRANCH  41  46
ENDBRANCH   1  36
TORSDOF 24
ENDMDL
MODEL 6
REMARK VINA RESULT:    -7.485      3.836      6.007
REMARK INTER + INTRA:         -18.376
REMARK INTER:                 -15.053
REMARK INTRA:                  -3.323
REMARK UNBOUND:                -3.015
REMARK SMILES O=C[C@@H](O)[C@@H](O)[C@H](CO)O[C@H]1OC[C@@H](O[C@@H]2OC[C@H](O[C@H]3OC[C@H](O[C@H]4OC[C@H](O)[C@H](O)[C@@H]4O)[C@@H](O)[C@H]3O)[C@H](O)[C@@H]2O)[C@@H](O)[C@H]1O
REMARK SMILES IDX 15 1 16 2 19 3 18 4 39 5 17 6 41 7 20 8 21 9 24 10 23 11
REMARK SMILES IDX 35 12 22 13 37 14 25 15 26 16 28 17 29 18 27 19 31 20 33 21
REMARK SMILES IDX 30 22 32 24 34 26 36 28 38 30 40 32 42 34 14 36 13 37 43 38
REMARK SMILES IDX 12 39 45 40 11 41 44 42 46 44 10 46 7 47 8 48 9 49 5 51 3 52
REMARK SMILES IDX 2 53 1 54 4 55 6 57
REMARK H PARENT 30 23 32 25 34 27 36 29 38 31 40 33 42 35 44 43 46 45 9 50
REMARK H PARENT 4 56 6 58
ROOT
ATOM      1  O   UNL     1       1.507   6.332  -8.507  1.00  0.00    -0.341 OA
ENDROOT
BRANCH   1   2
ATOM      2  C   UNL     1       2.534   5.427  -8.920  1.00  0.00    +0.282 C 
ATOM      3  C   UNL     1       5.367   4.950  -8.182  1.00  0.00    +0.179 C 
ATOM      4  C   UNL     1       4.168   5.007  -7.221  1.00  0.00    +0.198 C 
ATOM      5  C   UNL     1       4.934   5.336  -9.616  1.00  0.00    +0.179 C 
ATOM      6  O   UNL     1       2.969   4.572  -7.855  1.00  0.00    -0.347 OA
ATOM      7  C   UNL     1       3.682   6.215  -9.601  1.00  0.00    +0.202 C 
BRANCH   3   8
ATOM      8  O   UNL     1       6.429   5.833  -7.784  1.00  0.00    -0.341 OA
BRANCH   8   9
ATOM      9  C   UNL     1       7.430   5.223  -6.961  1.00  0.00    +0.282 C 
ATOM     10  C   UNL     1       9.002   5.160  -9.243  1.00  0.00    +0.179 C 
ATOM     11  C   UNL     1       8.847   3.893  -8.393  1.00  0.00    +0.198 C 
ATOM     12  C   UNL     1       9.202   6.387  -8.330  1.00  0.00    +0.179 C 
ATOM     13  O   UNL     1       7.763   3.927  -7.460  1.00  0.00    -0.347 OA
ATOM     14  C   UNL     1       8.671   6.138  -6.907  1.00  0.00    +0.202 C 
BRANCH  10  15
ATOM     15  O   UNL     1      10.095   4.943 -10.148  1.00  0.00    -0.341 OA
BRANCH  15  16
ATOM     16  C   UNL     1       9.699   4.396 -11.412  1.00  0.00    +0.282 C 
ATOM     17  C   UNL     1       8.254   4.858 -13.235  1.00  0.00    +0.198 C 
ATOM     18  C   UNL     1       9.356   5.378 -14.164  1.00  0.00    +0.171 C 
ATOM     19  O   UNL     1       8.564   5.141 -11.874  1.00  0.00    -0.347 OA
ATOM     20  C   UNL     1      10.660   5.644 -13.392  1.00  0.00    +0.179 C 
ATOM     21  C   UNL     1      10.905   4.524 -12.379  1.00  0.00    +0.202 C 
BRANCH  18  22
ATOM     22  O   UNL     1       9.611   4.428 -15.212  1.00  0.00    -0.388 OA
ATOM     23  H   UNL     1      10.211   3.752 -14.831  1.00  0.00    +0.211 HD
ENDBRANCH  18  22
BRANCH  20  24
ATOM     24  O   UNL     1      11.769   5.700 -14.308  1.00  0.00    -0.387 OA
ATOM     25  H   UNL     1      11.394   5.979 -15.170  1.00  0.00    +0.211 HD
ENDBRANCH  20  24
BRANCH  21  26
ATOM     26  O   UNL     1      11.092   3.297 -13.125  1.00  0.00    -0.385 OA
ATOM     27  H   UNL     1      11.995   3.005 -12.883  1.00  0.00    +0.211 HD
ENDBRANCH  21  26
ENDBRANCH  15  16
ENDBRANCH  10  15
BRANCH  12  28
ATOM     28  O   UNL     1       8.530   7.521  -8.917  1.00  0.00    -0.387 OA
ATOM     29  H   UNL     1       7.675   7.183  -9.255  1.00  0.00    +0.211 HD
ENDBRANCH  12  28
BRANCH  14  30
ATOM     30  O   UNL     1       8.391   7.396  -6.276  1.00  0.00    -0.385 OA
ATOM     31  H   UNL     1       8.156   7.210  -5.348  1.00  0.00    +0.211 HD
ENDBRANCH  14  30
ENDBRANCH   8   9
ENDBRANCH   3   8
BRANCH   5  32
ATOM     32  O   UNL     1       5.992   6.018 -10.306  1.00  0.00    -0.387 OA
ATOM     33  H   UNL     1       5.554   6.552 -11.003  1.00  0.00    +0.211 HD
ENDBRANCH   5  32
BRANCH   7  34
ATOM     34  O   UNL     1       3.980   7.437  -8.897  1.00  0.00    -0.385 OA
ATOM     35  H   UNL     1       3.531   7.358  -8.033  1.00  0.00    +0.211 HD
ENDBRANCH   7  34
ENDBRANCH   1   2
BRANCH   1  36
ATOM     36  C   UNL     1       0.408   6.407  -9.417  1.00  0.00    +0.179 C 
ATOM     37  C   UNL     1      -0.162   7.825  -9.447  1.00  0.00    +0.198 C 
ATOM     38  C   UNL     1      -0.694   5.419  -8.982  1.00  0.00    +0.179 C 
ATOM     39  O   UNL     1      -1.208   7.979 -10.414  1.00  0.00    -0.347 OA
ATOM     40  C   UNL     1      -2.102   5.925  -9.340  1.00  0.00    +0.202 C 
ATOM     41  C   UNL     1      -2.037   6.821 -10.595  1.00  0.00    +0.282 C 
BRANCH  38  42
ATOM     42  O   UNL     1      -0.651   5.174  -7.562  1.00  0.00    -0.387 OA
ATOM     43  H   UNL     1      -0.175   4.321  -7.454  1.00  0.00    +0.211 HD
ENDBRANCH  38  42
BRANCH  40  44
ATOM     44  O   UNL     1      -2.635   6.657  -8.215  1.00  0.00    -0.385 OA
ATOM     45  H   UNL     1      -1.845   7.012  -7.756  1.00  0.00    +0.211 HD
ENDBRANCH  40  44
BRANCH  41  46
ATOM     46  O   UNL     1      -3.360   7.222 -10.950  1.00  0.00    -0.341 OA
BRANCH  46  47
ATOM     47  C   UNL     1      -3.434   8.495 -11.613  1.00  0.00    +0.178 C 
BRANCH  47  48
ATOM     48  C   UNL     1      -3.866   8.253 -13.064  1.00  0.00    +0.191 C 
BRANCH  48  49
ATOM     49  O   UNL     1      -3.424   9.307 -13.909  1.00  0.00    -0.394 OA
ATOM     50  H   UNL     1      -4.212   9.833 -14.135  1.00  0.00    +0.210 HD
ENDBRANCH  48  49
ENDBRANCH  47  48
BRANCH  47  51
ATOM     51  C   UNL     1      -4.376   9.443 -10.824  1.00  0.00    +0.181 C 
BRANCH  51  52
ATOM     52  C   UNL     1      -3.655  10.524 -10.001  1.00  0.00    +0.209 C 
BRANCH  52  53
ATOM     53  C   UNL     1      -3.536  10.063  -8.554  1.00  0.00    +0.258 C 
ATOM     54  O   UNL     1      -4.127   9.069  -8.128  1.00  0.00    -0.300 OA
ENDBRANCH  52  53
BRANCH  52  55
ATOM     55  O   UNL     1      -2.344  10.794 -10.497  1.00  0.00    -0.383 OA
ATOM     56  H   UNL     1      -1.731  10.287  -9.924  1.00  0.00    +0.211 HD
ENDBRANCH  52  55
ENDBRANCH  51  52
BRANCH  51  57
ATOM     57  O   UNL     1      -5.263  10.104 -11.754  1.00  0.00    -0.387 OA
ATOM     58  H   UNL     1      -6.082   9.562 -11.802  1.00  0.00    +0.211 HD
ENDBRANCH  51  57
ENDBRANCH  47  51
ENDBRANCH  46  47
ENDBRANCH  41  46
ENDBRANCH   1  36
TORSDOF 24
ENDMDL
MODEL 7
REMARK VINA RESULT:    -7.084      4.597     14.283
REMARK INTER + INTRA:         -17.553
REMARK INTER:                 -15.062
REMARK INTRA:                  -2.491
REMARK UNBOUND:                -3.015
REMARK SMILES O=C[C@@H](O)[C@@H](O)[C@H](CO)O[C@H]1OC[C@@H](O[C@@H]2OC[C@H](O[C@H]3OC[C@H](O[C@H]4OC[C@H](O)[C@H](O)[C@@H]4O)[C@@H](O)[C@H]3O)[C@H](O)[C@@H]2O)[C@@H](O)[C@H]1O
REMARK SMILES IDX 15 1 16 2 19 3 18 4 39 5 17 6 41 7 20 8 21 9 24 10 23 11
REMARK SMILES IDX 35 12 22 13 37 14 25 15 26 16 28 17 29 18 27 19 31 20 33 21
REMARK SMILES IDX 30 22 32 24 34 26 36 28 38 30 40 32 42 34 14 36 13 37 43 38
REMARK SMILES IDX 12 39 45 40 11 41 44 42 46 44 10 46 7 47 8 48 9 49 5 51 3 52
REMARK SMILES IDX 2 53 1 54 4 55 6 57
REMARK H PARENT 30 23 32 25 34 27 36 29 38 31 40 33 42 35 44 43 46 45 9 50
REMARK H PARENT 4 56 6 58
ROOT
ATOM      1  O   UNL     1      16.448   3.189  -3.057  1.00  0.00    -0.341 OA
ENDROOT
BRANCH   1   2
ATOM      2  C   UNL     1      15.123   3.136  -2.521  1.00  0.00    +0.282 C 
ATOM      3  C   UNL     1      12.591   1.774  -3.250  1.00  0.00    +0.179 C 
ATOM      4  C   UNL     1      13.963   1.110  -3.056  1.00  0.00    +0.198 C 
ATOM      5  C   UNL     1      12.714   3.314  -3.168  1.00  0.00    +0.179 C 
ATOM      6  O   UNL     1      14.755   1.815  -2.104  1.00  0.00    -0.347 OA
ATOM      7  C   UNL     1      14.128   3.777  -3.523  1.00  0.00    +0.202 C 
BRANCH   3   8
ATOM      8  O   UNL     1      11.996   1.440  -4.515  1.00  0.00    -0.341 OA
BRANCH   8   9
ATOM      9  C   UNL     1      10.735   0.768  -4.418  1.00  0.00    +0.282 C 
ATOM     10  C   UNL     1       9.890   2.457  -6.447  1.00  0.00    +0.179 C 
ATOM     11  C   UNL     1       9.029   2.291  -5.189  1.00  0.00    +0.198 C 
ATOM     12  C   UNL     1      10.426   1.084  -6.903  1.00  0.00    +0.179 C 
ATOM     13  O   UNL     1       9.702   1.693  -4.078  1.00  0.00    -0.347 OA
ATOM     14  C   UNL     1      10.434   0.058  -5.755  1.00  0.00    +0.202 C 
BRANCH  10  15
ATOM     15  O   UNL     1       9.083   3.107  -7.441  1.00  0.00    -0.341 OA
BRANCH  15  16
ATOM     16  C   UNL     1       8.184   4.085  -6.903  1.00  0.00    +0.282 C 
ATOM     17  C   UNL     1       7.653   6.389  -7.098  1.00  0.00    +0.198 C 
ATOM     18  C   UNL     1       6.404   6.177  -7.960  1.00  0.00    +0.171 C 
ATOM     19  O   UNL     1       8.622   5.375  -7.351  1.00  0.00    -0.347 OA
ATOM     20  C   UNL     1       6.338   4.740  -8.505  1.00  0.00    +0.179 C 
ATOM     21  C   UNL     1       6.760   3.748  -7.419  1.00  0.00    +0.202 C 
BRANCH  18  22
ATOM     22  O   UNL     1       5.219   6.448  -7.193  1.00  0.00    -0.388 OA
ATOM     23  H   UNL     1       5.222   5.809  -6.448  1.00  0.00    +0.211 HD
ENDBRANCH  18  22
BRANCH  20  24
ATOM     24  O   UNL     1       4.994   4.436  -8.923  1.00  0.00    -0.387 OA
ATOM     25  H   UNL     1       4.608   3.884  -8.210  1.00  0.00    +0.211 HD
ENDBRANCH  20  24
BRANCH  21  26
ATOM     26  O   UNL     1       5.793   3.844  -6.345  1.00  0.00    -0.385 OA
ATOM     27  H   UNL     1       6.061   3.141  -5.718  1.00  0.00    +0.211 HD
ENDBRANCH  21  26
ENDBRANCH  15  16
ENDBRANCH  10  15
BRANCH  12  28
ATOM     28  O   UNL     1      11.762   1.253  -7.423  1.00  0.00    -0.387 OA
ATOM     29  H   UNL     1      11.761   0.835  -8.309  1.00  0.00    +0.211 HD
ENDBRANCH  12  28
BRANCH  14  30
ATOM     30  O   UNL     1      11.383  -0.977  -6.047  1.00  0.00    -0.385 OA
ATOM     31  H   UNL     1      10.887  -1.813  -6.127  1.00  0.00    +0.211 HD
ENDBRANCH  14  30
ENDBRANCH   8   9
ENDBRANCH   3   8
BRANCH   5  32
ATOM     32  O   UNL     1      11.767   3.952  -4.038  1.00  0.00    -0.387 OA
ATOM     33  H   UNL     1      12.096   4.868  -4.162  1.00  0.00    +0.211 HD
ENDBRANCH   5  32
BRANCH   7  34
ATOM     34  O   UNL     1      14.417   3.392  -4.882  1.00  0.00    -0.385 OA
ATOM     35  H   UNL     1      13.593   2.993  -5.221  1.00  0.00    +0.211 HD
ENDBRANCH   7  34
ENDBRANCH   1   2
BRANCH   1  36
ATOM     36  C   UNL     1      17.097   4.446  -2.858  1.00  0.00    +0.179 C 
ATOM     37  C   UNL     1      17.317   5.149  -4.197  1.00  0.00    +0.198 C 
ATOM     38  C   UNL     1      18.458   4.222  -2.165  1.00  0.00    +0.179 C 
ATOM     39  O   UNL     1      17.882   6.456  -4.047  1.00  0.00    -0.347 OA
ATOM     40  C   UNL     1      19.503   5.268  -2.588  1.00  0.00    +0.202 C 
ATOM     41  C   UNL     1      18.803   6.594  -2.955  1.00  0.00    +0.282 C 
BRANCH  38  42
ATOM     42  O   UNL     1      18.988   2.913  -2.456  1.00  0.00    -0.387 OA
ATOM     43  H   UNL     1      19.595   3.036  -3.219  1.00  0.00    +0.211 HD
ENDBRANCH  38  42
BRANCH  40  44
ATOM     44  O   UNL     1      20.251   4.755  -3.711  1.00  0.00    -0.385 OA
ATOM     45  H   UNL     1      21.179   4.723  -3.394  1.00  0.00    +0.211 HD
ENDBRANCH  40  44
BRANCH  41  46
ATOM     46  O   UNL     1      19.794   7.570  -3.276  1.00  0.00    -0.341 OA
BRANCH  46  47
ATOM     47  C   UNL     1      19.576   8.855  -2.671  1.00  0.00    +0.178 C 
BRANCH  47  48
ATOM     48  C   UNL     1      19.067   9.813  -3.754  1.00  0.00    +0.191 C 
BRANCH  48  49
ATOM     49  O   UNL     1      17.781   9.422  -4.216  1.00  0.00    -0.394 OA
ATOM     50  H   UNL     1      17.468   8.724  -3.613  1.00  0.00    +0.210 HD
ENDBRANCH  48  49
ENDBRANCH  47  48
BRANCH  47  51
ATOM     51  C   UNL     1      18.619   8.709  -1.457  1.00  0.00    +0.181 C 
BRANCH  51  52
ATOM     52  C   UNL     1      19.312   8.749  -0.085  1.00  0.00    +0.209 C 
BRANCH  52  53
ATOM     53  C   UNL     1      18.259   8.729   1.015  1.00  0.00    +0.258 C 
ATOM     54  O   UNL     1      17.785   9.761   1.492  1.00  0.00    -0.300 OA
ENDBRANCH  52  53
BRANCH  52  55
ATOM     55  O   UNL     1      20.186   7.636   0.109  1.00  0.00    -0.383 OA
ATOM     56  H   UNL     1      19.672   6.977   0.619  1.00  0.00    +0.211 HD
ENDBRANCH  52  55
ENDBRANCH  51  52
BRANCH  51  57
ATOM     57  O   UNL     1      17.642   9.774  -1.498  1.00  0.00    -0.387 OA
ATOM     58  H   UNL     1      16.833   9.403  -1.917  1.00  0.00    +0.211 HD
ENDBRANCH  51  57
ENDBRANCH  47  51
ENDBRANCH  46  47
ENDBRANCH  41  46
ENDBRANCH   1  36
TORSDOF 24
ENDMDL
MODEL 8
REMARK VINA RESULT:    -7.019      2.375     13.622
REMARK INTER + INTRA:         -17.420
REMARK INTER:                 -15.464
REMARK INTRA:                  -1.955
REMARK UNBOUND:                -3.015
REMARK SMILES O=C[C@@H](O)[C@@H](O)[C@H](CO)O[C@H]1OC[C@@H](O[C@@H]2OC[C@H](O[C@H]3OC[C@H](O[C@H]4OC[C@H](O)[C@H](O)[C@@H]4O)[C@@H](O)[C@H]3O)[C@H](O)[C@@H]2O)[C@@H](O)[C@H]1O
REMARK SMILES IDX 15 1 16 2 19 3 18 4 39 5 17 6 41 7 20 8 21 9 24 10 23 11
REMARK SMILES IDX 35 12 22 13 37 14 25 15 26 16 28 17 29 18 27 19 31 20 33 21
REMARK SMILES IDX 30 22 32 24 34 26 36 28 38 30 40 32 42 34 14 36 13 37 43 38
REMARK SMILES IDX 12 39 45 40 11 41 44 42 46 44 10 46 7 47 8 48 9 49 5 51 3 52
REMARK SMILES IDX 2 53 1 54 4 55 6 57
REMARK H PARENT 30 23 32 25 34 27 36 29 38 31 40 33 42 35 44 43 46 45 9 50
REMARK H PARENT 4 56 6 58
ROOT
ATOM      1  O   UNL     1       4.296   6.269  -9.456  1.00  0.00    -0.341 OA
ENDROOT
BRANCH   1   2
ATOM      2  C   UNL     1       3.375   7.255  -8.981  1.00  0.00    +0.282 C 
ATOM      3  C   UNL     1       0.424   7.504  -8.827  1.00  0.00    +0.179 C 
ATOM      4  C   UNL     1       1.272   6.337  -8.296  1.00  0.00    +0.198 C 
ATOM      5  C   UNL     1       1.304   8.502  -9.616  1.00  0.00    +0.179 C 
ATOM      6  O   UNL     1       2.569   6.772  -7.898  1.00  0.00    -0.347 OA
ATOM      7  C   UNL     1       2.556   7.821 -10.169  1.00  0.00    +0.202 C 
BRANCH   3   8
ATOM      8  O   UNL     1      -0.636   7.062  -9.691  1.00  0.00    -0.341 OA
BRANCH   8   9
ATOM      9  C   UNL     1      -1.926   7.013  -9.071  1.00  0.00    +0.282 C 
ATOM     10  C   UNL     1      -2.750   8.738 -11.078  1.00  0.00    +0.179 C 
ATOM     11  C   UNL     1      -3.081   9.060  -9.616  1.00  0.00    +0.198 C 
ATOM     12  C   UNL     1      -2.982   7.238 -11.352  1.00  0.00    +0.179 C 
ATOM     13  O   UNL     1      -2.327   8.318  -8.654  1.00  0.00    -0.347 OA
ATOM     14  C   UNL     1      -2.942   6.403 -10.060  1.00  0.00    +0.202 C 
BRANCH  10  15
ATOM     15  O   UNL     1      -3.553   9.595 -11.903  1.00  0.00    -0.341 OA
BRANCH  15  16
ATOM     16  C   UNL     1      -2.865  10.095 -13.057  1.00  0.00    +0.282 C 
ATOM     17  C   UNL     1      -2.869  11.956 -14.528  1.00  0.00    +0.198 C 
ATOM     18  C   UNL     1      -1.652  12.641 -13.898  1.00  0.00    +0.171 C 
ATOM     19  O   UNL     1      -3.601  11.223 -13.550  1.00  0.00    -0.347 OA
ATOM     20  C   UNL     1      -1.298  12.013 -12.538  1.00  0.00    +0.179 C 
ATOM     21  C   UNL     1      -1.431  10.490 -12.615  1.00  0.00    +0.202 C 
BRANCH  18  22
ATOM     22  O   UNL     1      -0.517  12.542 -14.775  1.00  0.00    -0.388 OA
ATOM     23  H   UNL     1      -0.157  11.637 -14.659  1.00  0.00    +0.211 HD
ENDBRANCH  18  22
BRANCH  20  24
ATOM     24  O   UNL     1       0.056  12.349 -12.181  1.00  0.00    -0.387 OA
ATOM     25  H   UNL     1       0.501  12.601 -13.017  1.00  0.00    +0.211 HD
ENDBRANCH  20  24
BRANCH  21  26
ATOM     26  O   UNL     1      -0.454  10.017 -13.573  1.00  0.00    -0.385 OA
ATOM     27  H   UNL     1      -0.935  10.019 -14.426  1.00  0.00    +0.211 HD
ENDBRANCH  21  26
ENDBRANCH  15  16
ENDBRANCH  10  15
BRANCH  12  28
ATOM     28  O   UNL     1      -1.974   6.769 -12.274  1.00  0.00    -0.387 OA
ATOM     29  H   UNL     1      -2.320   5.933 -12.649  1.00  0.00    +0.211 HD
ENDBRANCH  12  28
BRANCH  14  30
ATOM     30  O   UNL     1      -2.635   5.039 -10.382  1.00  0.00    -0.385 OA
ATOM     31  H   UNL     1      -2.996   4.483  -9.667  1.00  0.00    +0.211 HD
ENDBRANCH  14  30
ENDBRANCH   8   9
ENDBRANCH   3   8
BRANCH   5  32
ATOM     32  O   UNL     1       0.565   9.097 -10.694  1.00  0.00    -0.387 OA
ATOM     33  H   UNL     1       0.557   8.428 -11.412  1.00  0.00    +0.211 HD
ENDBRANCH   5  32
BRANCH   7  34
ATOM     34  O   UNL     1       2.156   6.781 -11.084  1.00  0.00    -0.385 OA
ATOM     35  H   UNL     1       1.942   6.009 -10.525  1.00  0.00    +0.211 HD
ENDBRANCH   7  34
ENDBRANCH   1   2
BRANCH   1  36
ATOM     36  C   UNL     1       5.162   5.756  -8.442  1.00  0.00    +0.179 C 
ATOM     37  C   UNL     1       6.450   5.219  -9.065  1.00  0.00    +0.198 C 
ATOM     38  C   UNL     1       4.449   4.622  -7.676  1.00  0.00    +0.179 C 
ATOM     39  O   UNL     1       7.395   4.776  -8.083  1.00  0.00    -0.347 OA
ATOM     40  C   UNL     1       5.434   3.552  -7.175  1.00  0.00    +0.202 C 
ATOM     41  C   UNL     1       6.814   4.189  -6.909  1.00  0.00    +0.282 C 
BRANCH  38  42
ATOM     42  O   UNL     1       3.459   3.972  -8.500  1.00  0.00    -0.387 OA
ATOM     43  H   UNL     1       2.880   3.478  -7.878  1.00  0.00    +0.211 HD
ENDBRANCH  38  42
BRANCH  40  44
ATOM     44  O   UNL     1       5.535   2.507  -8.167  1.00  0.00    -0.385 OA
ATOM     45  H   UNL     1       6.389   2.067  -7.973  1.00  0.00    +0.211 HD
ENDBRANCH  40  44
BRANCH  41  46
ATOM     46  O   UNL     1       7.691   3.196  -6.379  1.00  0.00    -0.341 OA
BRANCH  46  47
ATOM     47  C   UNL     1       9.087   3.524  -6.480  1.00  0.00    +0.178 C 
BRANCH  47  48
ATOM     48  C   UNL     1       9.532   4.132  -5.145  1.00  0.00    +0.191 C 
BRANCH  48  49
ATOM     49  O   UNL     1      10.851   4.653  -5.238  1.00  0.00    -0.394 OA
ATOM     50  H   UNL     1      11.421   3.920  -5.533  1.00  0.00    +0.210 HD
ENDBRANCH  48  49
ENDBRANCH  47  48
BRANCH  47  51
ATOM     51  C   UNL     1       9.893   2.267  -6.901  1.00  0.00    +0.181 C 
BRANCH  51  52
ATOM     52  C   UNL     1      10.462   1.447  -5.730  1.00  0.00    +0.209 C 
BRANCH  52  53
ATOM     53  C   UNL     1      10.185  -0.032  -5.967  1.00  0.00    +0.258 C 
ATOM     54  O   UNL     1      11.069  -0.822  -6.303  1.00  0.00    -0.300 OA
ENDBRANCH  52  53
BRANCH  52  55
ATOM     55  O   UNL     1      11.871   1.623  -5.584  1.00  0.00    -0.383 OA
ATOM     56  H   UNL     1      11.998   2.555  -5.308  1.00  0.00    +0.211 HD
ENDBRANCH  52  55
ENDBRANCH  51  52
BRANCH  51  57
ATOM     57  O   UNL     1       9.039   1.401  -7.682  1.00  0.00    -0.387 OA
ATOM     58  H   UNL     1       8.376   1.977  -8.124  1.00  0.00    +0.211 HD
ENDBRANCH  51  57
ENDBRANCH  47  51
ENDBRANCH  46  47
ENDBRANCH  41  46
ENDBRANCH   1  36
TORSDOF 24
ENDMDL
MODEL 9
REMARK VINA RESULT:    -6.921      4.466     14.334
REMARK INTER + INTRA:         -17.220
REMARK INTER:                 -14.493
REMARK INTRA:                  -2.727
REMARK UNBOUND:                -3.015
REMARK SMILES O=C[C@@H](O)[C@@H](O)[C@H](CO)O[C@H]1OC[C@@H](O[C@@H]2OC[C@H](O[C@H]3OC[C@H](O[C@H]4OC[C@H](O)[C@H](O)[C@@H]4O)[C@@H](O)[C@H]3O)[C@H](O)[C@@H]2O)[C@@H](O)[C@H]1O
REMARK SMILES IDX 15 1 16 2 19 3 18 4 39 5 17 6 41 7 20 8 21 9 24 10 23 11
REMARK SMILES IDX 35 12 22 13 37 14 25 15 26 16 28 17 29 18 27 19 31 20 33 21
REMARK SMILES IDX 30 22 32 24 34 26 36 28 38 30 40 32 42 34 14 36 13 37 43 38
REMARK SMILES IDX 12 39 45 40 11 41 44 42 46 44 10 46 7 47 8 48 9 49 5 51 3 52
REMARK SMILES IDX 2 53 1 54 4 55 6 57
REMARK H PARENT 30 23 32 25 34 27 36 29 38 31 40 33 42 35 44 43 46 45 9 50
REMARK H PARENT 4 56 6 58
ROOT
ATOM      1  O   UNL     1      16.657   2.411  -3.152  1.00  0.00    -0.341 OA
ENDROOT
BRANCH   1   2
ATOM      2  C   UNL     1      15.374   2.651  -2.568  1.00  0.00    +0.282 C 
ATOM      3  C   UNL     1      12.583   1.847  -3.170  1.00  0.00    +0.179 C 
ATOM      4  C   UNL     1      13.790   0.910  -3.007  1.00  0.00    +0.198 C 
ATOM      5  C   UNL     1      13.034   3.327  -3.133  1.00  0.00    +0.179 C 
ATOM      6  O   UNL     1      14.751   1.447  -2.102  1.00  0.00    -0.347 OA
ATOM      7  C   UNL     1      14.499   3.472  -3.550  1.00  0.00    +0.202 C 
BRANCH   3   8
ATOM      8  O   UNL     1      11.880   1.625  -4.404  1.00  0.00    -0.341 OA
BRANCH   8   9
ATOM      9  C   UNL     1      10.532   1.168  -4.244  1.00  0.00    +0.282 C 
ATOM     10  C   UNL     1       9.909   2.854  -6.355  1.00  0.00    +0.179 C 
ATOM     11  C   UNL     1       9.068   2.898  -5.073  1.00  0.00    +0.198 C 
ATOM     12  C   UNL     1      10.210   1.390  -6.738  1.00  0.00    +0.179 C 
ATOM     13  O   UNL     1       9.668   2.263  -3.941  1.00  0.00    -0.347 OA
ATOM     14  C   UNL     1      10.087   0.442  -5.531  1.00  0.00    +0.202 C 
BRANCH  10  15
ATOM     15  O   UNL     1       9.189   3.568  -7.370  1.00  0.00    -0.341 OA
BRANCH  15  16
ATOM     16  C   UNL     1       8.142   4.402  -6.857  1.00  0.00    +0.282 C 
ATOM     17  C   UNL     1       7.277   6.600  -7.074  1.00  0.00    +0.198 C 
ATOM     18  C   UNL     1       6.093   6.202  -7.961  1.00  0.00    +0.171 C 
ATOM     19  O   UNL     1       8.391   5.742  -7.302  1.00  0.00    -0.347 OA
ATOM     20  C   UNL     1       6.253   4.770  -8.501  1.00  0.00    +0.179 C 
ATOM     21  C   UNL     1       6.796   3.854  -7.400  1.00  0.00    +0.202 C 
BRANCH  18  22
ATOM     22  O   UNL     1       4.864   6.294  -7.220  1.00  0.00    -0.388 OA
ATOM     23  H   UNL     1       4.141   6.168  -7.871  1.00  0.00    +0.211 HD
ENDBRANCH  18  22
BRANCH  20  24
ATOM     24  O   UNL     1       4.980   4.267  -8.945  1.00  0.00    -0.387 OA
ATOM     25  H   UNL     1       5.139   3.868  -9.826  1.00  0.00    +0.211 HD
ENDBRANCH  20  24
BRANCH  21  26
ATOM     26  O   UNL     1       5.802   3.806  -6.348  1.00  0.00    -0.385 OA
ATOM     27  H   UNL     1       6.186   4.355  -5.632  1.00  0.00    +0.211 HD
ENDBRANCH  21  26
ENDBRANCH  15  16
ENDBRANCH  10  15
BRANCH  12  28
ATOM     28  O   UNL     1      11.541   1.315  -7.291  1.00  0.00    -0.387 OA
ATOM     29  H   UNL     1      11.481   0.705  -8.055  1.00  0.00    +0.211 HD
ENDBRANCH  12  28
BRANCH  14  30
ATOM     30  O   UNL     1      10.853  -0.746  -5.777  1.00  0.00    -0.385 OA
ATOM     31  H   UNL     1      11.646  -0.482  -6.278  1.00  0.00    +0.211 HD
ENDBRANCH  14  30
ENDBRANCH   8   9
ENDBRANCH   3   8
BRANCH   5  32
ATOM     32  O   UNL     1      12.210   4.136  -3.986  1.00  0.00    -0.387 OA
ATOM     33  H   UNL     1      12.559   4.006  -4.894  1.00  0.00    +0.211 HD
ENDBRANCH   5  32
BRANCH   7  34
ATOM     34  O   UNL     1      14.644   3.009  -4.907  1.00  0.00    -0.385 OA
ATOM     35  H   UNL     1      14.967   2.090  -4.837  1.00  0.00    +0.211 HD
ENDBRANCH   7  34
ENDBRANCH   1   2
BRANCH   1  36
ATOM     36  C   UNL     1      17.661   3.337  -2.732  1.00  0.00    +0.179 C 
ATOM     37  C   UNL     1      17.019   4.544  -2.048  1.00  0.00    +0.198 C 
ATOM     38  C   UNL     1      18.473   3.812  -3.956  1.00  0.00    +0.179 C 
ATOM     39  O   UNL     1      17.987   5.461  -1.525  1.00  0.00    -0.347 OA
ATOM     40  C   UNL     1      18.975   5.257  -3.795  1.00  0.00    +0.202 C 
ATOM     41  C   UNL     1      19.189   5.576  -2.300  1.00  0.00    +0.282 C 
BRANCH  38  42
ATOM     42  O   UNL     1      17.691   3.738  -5.166  1.00  0.00    -0.387 OA
ATOM     43  H   UNL     1      17.781   4.619  -5.593  1.00  0.00    +0.211 HD
ENDBRANCH  38  42
BRANCH  40  44
ATOM     44  O   UNL     1      18.007   6.156  -4.377  1.00  0.00    -0.385 OA
ATOM     45  H   UNL     1      18.409   6.433  -5.227  1.00  0.00    +0.211 HD
ENDBRANCH  40  44
BRANCH  41  46
ATOM     46  O   UNL     1      19.721   6.895  -2.178  1.00  0.00    -0.341 OA
BRANCH  46  47
ATOM     47  C   UNL     1      18.777   7.872  -1.709  1.00  0.00    +0.178 C 
BRANCH  47  48
ATOM     48  C   UNL     1      19.184   8.287  -0.291  1.00  0.00    +0.191 C 
BRANCH  48  49
ATOM     49  O   UNL     1      18.499   7.510   0.683  1.00  0.00    -0.394 OA
ATOM     50  H   UNL     1      17.758   8.055   1.004  1.00  0.00    +0.210 HD
ENDBRANCH  48  49
ENDBRANCH  47  48
BRANCH  47  51
ATOM     51  C   UNL     1      18.700   9.052  -2.714  1.00  0.00    +0.181 C 
BRANCH  51  52
ATOM     52  C   UNL     1      19.891   9.149  -3.683  1.00  0.00    +0.209 C 
BRANCH  52  53
ATOM     53  C   UNL     1      19.576  10.166  -4.772  1.00  0.00    +0.258 C 
ATOM     54  O   UNL     1      19.090  11.271  -4.522  1.00  0.00    -0.300 OA
ENDBRANCH  52  53
BRANCH  52  55
ATOM     55  O   UNL     1      21.091   9.553  -3.023  1.00  0.00    -0.383 OA
ATOM     56  H   UNL     1      21.708   8.797  -3.103  1.00  0.00    +0.211 HD
ENDBRANCH  52  55
ENDBRANCH  51  52
BRANCH  51  57
ATOM     57  O   UNL     1      17.493   8.924  -3.498  1.00  0.00    -0.387 OA
ATOM     58  H   UNL     1      17.731   8.423  -4.310  1.00  0.00    +0.211 HD
ENDBRANCH  51  57
ENDBRANCH  47  51
ENDBRANCH  46  47
ENDBRANCH  41  46
ENDBRANCH   1  36
TORSDOF 24
ENDMDL
