REMARK SMILES OC[C@@H]1O[C@H](O[C@H]2[C@@H]3OC[C@H]2O[C@@H](O[C@@H]2[C@H](O)[C@@H](O[C@@H]4[C@@H]5OC[C@H]4O[C@H](O[C@@H]4[C@@H](O)[C@H](O)O[C@@H](CO)[C@H]4O)[C@@H]5O)O[C@H](CO)[C@H]2O)[C@H]3O)[C@@H](O)[C@H](O[C@@H]2O[C@@H]3CO[C@H]([C@H]2O)[C@@H]3O)[C@H]1O
REMARK SMILES IDX 15 1 45 2 42 3 41 4 18 5 16 6 14 7 13 8 7 9 11 10 8 11 10 12
REMARK SMILES IDX 12 13 9 14 47 15 6 16 5 17 51 18 63 19 49 20 3 21 4 22 52 23
REMARK SMILES IDX 53 24 56 25 55 26 57 27 61 28 54 29 58 30 59 31 62 32 60 34
REMARK SMILES IDX 64 36 50 38 2 40 1 41 48 43 46 45 17 47 43 49 44 50 19 52
REMARK SMILES IDX 20 53 24 54 21 55 23 56 25 57 22 58 39 59 26 60 40 61 27 63
REMARK SMILES IDX 28 64 37 65 29 66 34 67 31 68 33 69 38 70 30 72 35 74 36 75
REMARK SMILES IDX 32 77
REMARK H PARENT 62 33 60 35 64 37 50 39 1 42 48 44 46 46 17 48 44 51 40 62
REMARK H PARENT 38 71 30 73 36 76 32 78
ROOT
ATOM      1  C   UNL     1      -0.116  -1.991  -2.187  1.00  0.00    +0.186 C 
ATOM      2  C   UNL     1      -0.480  -0.528  -2.515  1.00  0.00    +0.177 C 
ATOM      3  C   UNL     1       0.592   0.469  -2.022  1.00  0.00    +0.178 C 
ATOM      4  O   UNL     1       1.397  -0.092  -0.984  1.00  0.00    -0.341 OA
ATOM      5  C   UNL     1       2.176  -1.203  -1.433  1.00  0.00    +0.282 C 
ATOM      6  C   UNL     1       1.397  -2.162  -2.376  1.00  0.00    +0.202 C 
ENDROOT
BRANCH   1   7
ATOM      7  O   UNL     1      -0.418  -2.438  -0.843  1.00  0.00    -0.341 OA
BRANCH   7   8
ATOM      8  C   UNL     1      -1.774  -2.205  -0.440  1.00  0.00    +0.282 C 
ATOM      9  C   UNL     1      -2.577  -1.643   2.323  1.00  0.00    +0.184 C 
ATOM     10  C   UNL     1      -1.546  -0.829   1.553  1.00  0.00    +0.179 C 
ATOM     11  C   UNL     1      -2.021  -3.020   1.967  1.00  0.00    +0.184 C 
ATOM     12  C   UNL     1      -0.249  -1.527   1.964  1.00  0.00    +0.195 C 
ATOM     13  O   UNL     1      -1.855  -0.895   0.143  1.00  0.00    -0.341 OA
ATOM     14  O   UNL     1      -0.588  -2.920   2.155  1.00  0.00    -0.370 OA
ATOM     15  C   UNL     1      -2.296  -3.336   0.489  1.00  0.00    +0.202 C 
BRANCH   9  16
ATOM     16  O   UNL     1      -3.918  -1.496   1.875  1.00  0.00    -0.341 OA
BRANCH  16  17
ATOM     17  C   UNL     1      -4.563  -0.275   2.285  1.00  0.00    +0.282 C 
ATOM     18  C   UNL     1      -6.777   0.966   1.862  1.00  0.00    +0.186 C 
ATOM     19  C   UNL     1      -5.844   2.186   1.852  1.00  0.00    +0.177 C 
ATOM     20  C   UNL     1      -6.013  -0.364   1.764  1.00  0.00    +0.202 C 
ATOM     21  C   UNL     1      -4.506   1.902   1.168  1.00  0.00    +0.178 C 
ATOM     22  O   UNL     1      -3.805   0.821   1.788  1.00  0.00    -0.341 OA
BRANCH  18  23
ATOM     23  O   UNL     1      -7.674   1.105   0.737  1.00  0.00    -0.341 OA
BRANCH  23  24
ATOM     24  C   UNL     1      -8.944   0.467   0.925  1.00  0.00    +0.282 C 
ATOM     25  C   UNL     1      -8.144  -0.736  -1.645  1.00  0.00    +0.195 C 
ATOM     26  C   UNL     1      -8.997  -1.444  -0.594  1.00  0.00    +0.178 C 
ATOM     27  O   UNL     1      -8.889   0.442  -2.035  1.00  0.00    -0.370 OA
ATOM     28  C   UNL     1     -10.390  -1.090  -1.078  1.00  0.00    +0.177 C 
ATOM     29  O   UNL     1      -8.806  -0.954   0.746  1.00  0.00    -0.341 OA
ATOM     30  C   UNL     1     -10.145   0.395  -1.323  1.00  0.00    +0.183 C 
ATOM     31  C   UNL     1     -10.013   1.137   0.015  1.00  0.00    +0.202 C 
BRANCH  28  32
ATOM     32  O   UNL     1     -11.412  -1.356  -0.127  1.00  0.00    -0.387 OA
ATOM     33  H   UNL     1     -11.357  -2.303   0.103  1.00  0.00    +0.211 HD
ENDBRANCH  28  32
BRANCH  31  34
ATOM     34  O   UNL     1     -11.288   1.174   0.681  1.00  0.00    -0.385 OA
ATOM     35  H   UNL     1     -11.636   0.255   0.669  1.00  0.00    +0.211 HD
ENDBRANCH  31  34
ENDBRANCH  23  24
ENDBRANCH  18  23
BRANCH  19  36
ATOM     36  O   UNL     1      -5.590   2.546   3.223  1.00  0.00    -0.387 OA
ATOM     37  H   UNL     1      -5.032   3.345   3.225  1.00  0.00    +0.211 HD
ENDBRANCH  19  36
BRANCH  20  38
ATOM     38  O   UNL     1      -6.738  -1.389   2.473  1.00  0.00    -0.385 OA
ATOM     39  H   UNL     1      -7.584  -1.505   1.993  1.00  0.00    +0.211 HD
ENDBRANCH  20  38
BRANCH  21  40
ATOM     40  C   UNL     1      -4.584   1.674  -0.348  1.00  0.00    +0.191 C 
BRANCH  40  41
ATOM     41  O   UNL     1      -3.261   1.470  -0.865  1.00  0.00    -0.394 OA
ATOM     42  H   UNL     1      -2.892   0.726  -0.336  1.00  0.00    +0.210 HD
ENDBRANCH  40  41
ENDBRANCH  21  40
ENDBRANCH  16  17
ENDBRANCH   9  16
BRANCH  15  43
ATOM     43  O   UNL     1      -1.724  -4.602   0.136  1.00  0.00    -0.385 OA
ATOM     44  H   UNL     1      -0.777  -4.520   0.368  1.00  0.00    +0.211 HD
ENDBRANCH  15  43
ENDBRANCH   7   8
ENDBRANCH   1   7
BRANCH   2  45
ATOM     45  O   UNL     1      -0.624  -0.386  -3.938  1.00  0.00    -0.387 OA
ATOM     46  H   UNL     1      -0.878   0.548  -4.090  1.00  0.00    +0.211 HD
ENDBRANCH   2  45
BRANCH   6  47
ATOM     47  O   UNL     1       1.769  -3.529  -2.116  1.00  0.00    -0.385 OA
ATOM     48  H   UNL     1       1.250  -3.799  -1.334  1.00  0.00    +0.211 HD
ENDBRANCH   6  47
BRANCH   3  49
ATOM     49  C   UNL     1      -0.060   1.753  -1.491  1.00  0.00    +0.191 C 
BRANCH  49  50
ATOM     50  O   UNL     1      -1.040   2.253  -2.397  1.00  0.00    -0.394 OA
ATOM     51  H   UNL     1      -1.909   2.163  -1.944  1.00  0.00    +0.210 HD
ENDBRANCH  49  50
ENDBRANCH   3  49
BRANCH   5  52
ATOM     52  O   UNL     1       3.356  -0.757  -2.112  1.00  0.00    -0.341 OA
BRANCH  52  53
ATOM     53  C   UNL     1       4.356  -0.230  -1.236  1.00  0.00    +0.184 C 
ATOM     54  C   UNL     1       5.659  -0.098  -2.006  1.00  0.00    +0.179 C 
ATOM     55  C   UNL     1       4.175   1.258  -0.914  1.00  0.00    +0.184 C 
ATOM     56  C   UNL     1       5.342   1.088  -2.921  1.00  0.00    +0.195 C 
ATOM     57  O   UNL     1       6.743   0.172  -1.089  1.00  0.00    -0.341 OA
ATOM     58  O   UNL     1       4.504   1.973  -2.136  1.00  0.00    -0.370 OA
ATOM     59  C   UNL     1       5.198   1.660   0.155  1.00  0.00    +0.202 C 
ATOM     60  C   UNL     1       6.630   1.417  -0.389  1.00  0.00    +0.282 C 
BRANCH  59  61
ATOM     61  O   UNL     1       4.966   0.907   1.357  1.00  0.00    -0.385 OA
ATOM     62  H   UNL     1       5.815   0.919   1.842  1.00  0.00    +0.211 HD
ENDBRANCH  59  61
BRANCH  60  63
ATOM     63  O   UNL     1       7.518   1.370   0.735  1.00  0.00    -0.341 OA
BRANCH  63  64
ATOM     64  C   UNL     1       8.865   1.774   0.441  1.00  0.00    +0.186 C 
ATOM     65  C   UNL     1       9.609   1.901   1.788  1.00  0.00    +0.177 C 
ATOM     66  C   UNL     1       9.637   0.801  -0.479  1.00  0.00    +0.202 C 
ATOM     67  C   UNL     1       9.857   0.505   2.397  1.00  0.00    +0.178 C 
ATOM     68  C   UNL     1       9.893  -0.543   0.244  1.00  0.00    +0.279 C 
ATOM     69  O   UNL     1      10.576  -0.330   1.477  1.00  0.00    -0.342 OA
BRANCH  65  70
ATOM     70  O   UNL     1      10.845   2.612   1.615  1.00  0.00    -0.387 OA
ATOM     71  H   UNL     1      11.257   2.268   0.790  1.00  0.00    +0.211 HD
ENDBRANCH  65  70
BRANCH  66  72
ATOM     72  O   UNL     1      10.884   1.429  -0.841  1.00  0.00    -0.385 OA
ATOM     73  H   UNL     1      11.413   0.769  -1.329  1.00  0.00    +0.211 HD
ENDBRANCH  66  72
BRANCH  67  74
ATOM     74  C   UNL     1      10.649   0.570   3.716  1.00  0.00    +0.191 C 
BRANCH  74  75
ATOM     75  O   UNL     1      11.930   1.185   3.586  1.00  0.00    -0.394 OA
ATOM     76  H   UNL     1      11.818   1.944   2.975  1.00  0.00    +0.210 HD
ENDBRANCH  74  75
ENDBRANCH  67  74
BRANCH  68  77
ATOM     77  O   UNL     1       8.727  -1.326   0.433  1.00  0.00    -0.366 OA
ATOM     78  H   UNL     1       7.947  -0.770   0.247  1.00  0.00    +0.213 HD
ENDBRANCH  68  77
ENDBRANCH  63  64
ENDBRANCH  60  63
ENDBRANCH  52  53
ENDBRANCH   5  52
TORSDOF 27
