REMARK SMILES OC[C@H]1O[C@H](O[C@H]2[C@H](O)[C@H](O)[C@H](O[C@@H]3[C@@H](O)[C@H](O)[C@H](O[C@@H]4[C@H](O)[C@@H](O)[C@@H](O[C@@H]5[C@@H](O)[C@@H](O)[C@H](O)O[C@@H]5CO)O[C@@H]4CO)O[C@@H]3CO)O[C@@H]2CO)[C@H](O)[C@H](O)[C@H]1O
REMARK SMILES IDX 14 1 44 2 43 3 19 4 17 5 15 6 13 7 12 8 7 9 48 10 8 11 47 12
REMARK SMILES IDX 10 13 6 14 5 15 3 16 55 17 4 18 53 19 51 20 2 21 1 22 56 24
REMARK SMILES IDX 54 26 52 28 49 30 50 31 9 33 11 35 45 37 46 38 16 40 18 42
REMARK SMILES IDX 20 44 21 45 40 46 22 47 39 48 24 49 26 50 41 51 42 52 23 54
REMARK SMILES IDX 25 56 27 58 28 59 36 60 29 61 35 62 31 63 33 64 37 65 38 66
REMARK SMILES IDX 30 68 32 70 34 72
REMARK H PARENT 1 23 56 25 54 27 52 29 50 32 9 34 11 36 46 39 16 41 18 43
REMARK H PARENT 42 53 23 55 25 57 38 67 30 69 32 71 34 73
ROOT
ATOM      1  C   UNL     1      -1.193   1.422  -0.805  1.00  0.00    +0.184 C 
ATOM      2  C   UNL     1      -0.417   0.708   0.314  1.00  0.00    +0.178 C 
ATOM      3  O   UNL     1       0.658   1.507   0.844  1.00  0.00    -0.341 OA
ATOM      4  C   UNL     1       1.572   2.066  -0.103  1.00  0.00    +0.282 C 
ATOM      5  C   UNL     1       0.850   2.806  -1.246  1.00  0.00    +0.202 C 
ATOM      6  C   UNL     1      -0.231   1.932  -1.882  1.00  0.00    +0.180 C 
ENDROOT
BRANCH   1   7
ATOM      7  O   UNL     1      -2.144   0.519  -1.391  1.00  0.00    -0.341 OA
BRANCH   7   8
ATOM      8  C   UNL     1      -3.414   1.142  -1.626  1.00  0.00    +0.282 C 
ATOM      9  C   UNL     1      -6.066  -0.040  -0.993  1.00  0.00    +0.184 C 
ATOM     10  C   UNL     1      -4.978   0.316   0.052  1.00  0.00    +0.178 C 
ATOM     11  C   UNL     1      -5.683   0.424  -2.412  1.00  0.00    +0.180 C 
ATOM     12  O   UNL     1      -4.100   1.359  -0.395  1.00  0.00    -0.341 OA
ATOM     13  C   UNL     1      -4.189   0.295  -2.655  1.00  0.00    +0.202 C 
BRANCH   9  14
ATOM     14  O   UNL     1      -7.293   0.660  -0.688  1.00  0.00    -0.341 OA
BRANCH  14  15
ATOM     15  C   UNL     1      -8.216  -0.113   0.080  1.00  0.00    +0.282 C 
ATOM     16  C   UNL     1      -8.570  -1.116   2.252  1.00  0.00    +0.178 C 
ATOM     17  C   UNL     1      -9.951  -0.452   2.372  1.00  0.00    +0.177 C 
ATOM     18  O   UNL     1      -7.698  -0.370   1.389  1.00  0.00    -0.341 OA
ATOM     19  C   UNL     1     -10.547  -0.171   0.987  1.00  0.00    +0.179 C 
ATOM     20  C   UNL     1      -9.565   0.640   0.144  1.00  0.00    +0.202 C 
BRANCH  16  21
ATOM     21  C   UNL     1      -8.619  -2.597   1.841  1.00  0.00    +0.191 C 
BRANCH  21  22
ATOM     22  O   UNL     1      -7.312  -3.167   1.885  1.00  0.00    -0.394 OA
ATOM     23  H   UNL     1      -6.684  -2.495   1.531  1.00  0.00    +0.210 HD
ENDBRANCH  21  22
ENDBRANCH  16  21
BRANCH  17  24
ATOM     24  O   UNL     1     -10.882  -1.246   3.115  1.00  0.00    -0.387 OA
ATOM     25  H   UNL     1     -10.557  -1.286   4.034  1.00  0.00    +0.211 HD
ENDBRANCH  17  24
BRANCH  19  26
ATOM     26  O   UNL     1     -11.771   0.569   1.141  1.00  0.00    -0.387 OA
ATOM     27  H   UNL     1     -12.278   0.083   1.822  1.00  0.00    +0.211 HD
ENDBRANCH  19  26
BRANCH  20  28
ATOM     28  O   UNL     1      -9.430   1.943   0.746  1.00  0.00    -0.385 OA
ATOM     29  H   UNL     1     -10.347   2.267   0.848  1.00  0.00    +0.211 HD
ENDBRANCH  20  28
ENDBRANCH  14  15
ENDBRANCH   9  14
BRANCH  10  30
ATOM     30  C   UNL     1      -4.184  -0.896   0.572  1.00  0.00    +0.191 C 
BRANCH  30  31
ATOM     31  O   UNL     1      -5.039  -1.903   1.107  1.00  0.00    -0.394 OA
ATOM     32  H   UNL     1      -4.455  -2.599   1.463  1.00  0.00    +0.210 HD
ENDBRANCH  30  31
ENDBRANCH  10  30
BRANCH  11  33
ATOM     33  O   UNL     1      -6.384  -0.381  -3.381  1.00  0.00    -0.387 OA
ATOM     34  H   UNL     1      -5.884  -1.221  -3.428  1.00  0.00    +0.211 HD
ENDBRANCH  11  33
BRANCH  13  35
ATOM     35  O   UNL     1      -3.844  -1.106  -2.586  1.00  0.00    -0.385 OA
ATOM     36  H   UNL     1      -2.874  -1.115  -2.451  1.00  0.00    +0.211 HD
ENDBRANCH  13  35
ENDBRANCH   7   8
ENDBRANCH   1   7
BRANCH   2  37
ATOM     37  C   UNL     1       0.054  -0.709  -0.060  1.00  0.00    +0.191 C 
BRANCH  37  38
ATOM     38  O   UNL     1       0.682  -1.329   1.061  1.00  0.00    -0.394 OA
ATOM     39  H   UNL     1       1.183  -0.629   1.519  1.00  0.00    +0.210 HD
ENDBRANCH  37  38
ENDBRANCH   2  37
BRANCH   6  40
ATOM     40  O   UNL     1      -0.948   2.708  -2.857  1.00  0.00    -0.387 OA
ATOM     41  H   UNL     1      -0.284   3.259  -3.319  1.00  0.00    +0.211 HD
ENDBRANCH   6  40
BRANCH   5  42
ATOM     42  O   UNL     1       1.750   3.251  -2.272  1.00  0.00    -0.385 OA
ATOM     43  H   UNL     1       2.092   2.456  -2.724  1.00  0.00    +0.211 HD
ENDBRANCH   5  42
BRANCH   4  44
ATOM     44  O   UNL     1       2.437   1.042  -0.605  1.00  0.00    -0.341 OA
BRANCH  44  45
ATOM     45  C   UNL     1       3.827   1.438  -0.717  1.00  0.00    +0.184 C 
ATOM     46  C   UNL     1       4.700   0.880   0.439  1.00  0.00    +0.178 C 
ATOM     47  C   UNL     1       4.318   0.902  -2.089  1.00  0.00    +0.180 C 
ATOM     48  O   UNL     1       5.079  -0.481   0.163  1.00  0.00    -0.341 OA
ATOM     49  C   UNL     1       5.784   0.497  -2.036  1.00  0.00    +0.202 C 
ATOM     50  C   UNL     1       5.984  -0.587  -0.943  1.00  0.00    +0.282 C 
BRANCH  46  51
ATOM     51  C   UNL     1       4.002   0.893   1.800  1.00  0.00    +0.191 C 
BRANCH  51  52
ATOM     52  O   UNL     1       4.900   0.432   2.811  1.00  0.00    -0.394 OA
ATOM     53  H   UNL     1       5.197  -0.449   2.515  1.00  0.00    +0.210 HD
ENDBRANCH  51  52
ENDBRANCH  46  51
BRANCH  47  54
ATOM     54  O   UNL     1       3.522  -0.208  -2.533  1.00  0.00    -0.387 OA
ATOM     55  H   UNL     1       2.896  -0.400  -1.806  1.00  0.00    +0.211 HD
ENDBRANCH  47  54
BRANCH  49  56
ATOM     56  O   UNL     1       6.577   1.668  -1.776  1.00  0.00    -0.385 OA
ATOM     57  H   UNL     1       7.492   1.334  -1.625  1.00  0.00    +0.211 HD
ENDBRANCH  49  56
BRANCH  50  58
ATOM     58  O   UNL     1       7.325  -0.475  -0.472  1.00  0.00    -0.341 OA
BRANCH  58  59
ATOM     59  C   UNL     1       8.018  -1.714  -0.318  1.00  0.00    +0.184 C 
ATOM     60  C   UNL     1       9.542  -1.426  -0.311  1.00  0.00    +0.178 C 
ATOM     61  C   UNL     1       7.615  -2.391   0.997  1.00  0.00    +0.180 C 
ATOM     62  O   UNL     1       9.922  -0.638   0.838  1.00  0.00    -0.342 OA
ATOM     63  C   UNL     1       8.119  -1.584   2.195  1.00  0.00    +0.201 C 
ATOM     64  C   UNL     1       9.625  -1.307   2.053  1.00  0.00    +0.279 C 
BRANCH  60  65
ATOM     65  C   UNL     1       9.996  -0.640  -1.553  1.00  0.00    +0.191 C 
BRANCH  65  66
ATOM     66  O   UNL     1       9.476   0.693  -1.553  1.00  0.00    -0.394 OA
ATOM     67  H   UNL     1       9.606   1.007  -0.634  1.00  0.00    +0.210 HD
ENDBRANCH  65  66
ENDBRANCH  60  65
BRANCH  61  68
ATOM     68  O   UNL     1       8.162  -3.717   1.049  1.00  0.00    -0.387 OA
ATOM     69  H   UNL     1       7.961  -4.032   1.956  1.00  0.00    +0.211 HD
ENDBRANCH  61  68
BRANCH  63  70
ATOM     70  O   UNL     1       7.854  -2.324   3.398  1.00  0.00    -0.385 OA
ATOM     71  H   UNL     1       8.235  -1.776   4.115  1.00  0.00    +0.211 HD
ENDBRANCH  63  70
BRANCH  64  72
ATOM     72  O   UNL     1      10.017  -0.464   3.131  1.00  0.00    -0.366 OA
ATOM     73  H   UNL     1      10.975  -0.345   3.015  1.00  0.00    +0.213 HD
ENDBRANCH  64  72
ENDBRANCH  58  59
ENDBRANCH  50  58
ENDBRANCH  44  45
ENDBRANCH   4  44
TORSDOF 30
