REMARK SMILES O=S(=O)(O)OC[C@@H]1O[C@H](O[C@H]2[C@@H]3OC[C@H]2O[C@@H](O)[C@H]3O)[C@@H](O)[C@H](O)[C@@H]1O
REMARK SMILES IDX 9 1 21 2 23 3 25 4 7 5 8 6 10 7 11 8 14 9 15 10 13 11 16 12
REMARK SMILES IDX 12 13 17 14 19 15 18 16 20 18 22 20 24 22 6 24 5 25 2 26
REMARK SMILES IDX 1 27 3 28 4 29 26 31
REMARK H PARENT 18 17 20 19 22 21 24 23 4 30 26 32
ROOT
ATOM      1  C   UNL     1      -0.323   0.930   1.562  1.00  0.00    +0.282 C 
ATOM      2  C   UNL     1      -0.810  -0.025   2.669  1.00  0.00    +0.202 C 
ATOM      3  C   UNL     1      -2.250   0.328   3.000  1.00  0.00    +0.179 C 
ATOM      4  C   UNL     1      -3.131   0.058   1.777  1.00  0.00    +0.177 C 
ATOM      5  C   UNL     1      -2.428   0.398   0.441  1.00  0.00    +0.180 C 
ATOM      6  O   UNL     1      -1.324   1.306   0.618  1.00  0.00    -0.341 OA
ENDROOT
BRANCH   1   7
ATOM      7  O   UNL     1       0.831   0.343   0.954  1.00  0.00    -0.341 OA
BRANCH   7   8
ATOM      8  C   UNL     1       1.557   1.259   0.141  1.00  0.00    +0.184 C 
ATOM      9  C   UNL     1       2.351   2.028  -1.926  1.00  0.00    +0.195 C 
ATOM     10  C   UNL     1       1.187   1.232  -1.334  1.00  0.00    +0.179 C 
ATOM     11  O   UNL     1       3.500   1.729  -1.092  1.00  0.00    -0.370 OA
ATOM     12  O   UNL     1       1.123  -0.124  -1.811  1.00  0.00    -0.342 OA
ATOM     13  C   UNL     1       3.023   0.874  -0.021  1.00  0.00    +0.184 C 
ATOM     14  C   UNL     1       2.321  -0.886  -1.707  1.00  0.00    +0.279 C 
ATOM     15  C   UNL     1       3.141  -0.601  -0.429  1.00  0.00    +0.202 C 
BRANCH  14  16
ATOM     16  O   UNL     1       3.114  -0.652  -2.868  1.00  0.00    -0.366 OA
ATOM     17  H   UNL     1       2.635  -1.103  -3.586  1.00  0.00    +0.213 HD
ENDBRANCH  14  16
BRANCH  15  18
ATOM     18  O   UNL     1       4.517  -0.957  -0.616  1.00  0.00    -0.385 OA
ATOM     19  H   UNL     1       4.752  -0.549  -1.477  1.00  0.00    +0.211 HD
ENDBRANCH  15  18
ENDBRANCH   7   8
ENDBRANCH   1   7
BRANCH   2  20
ATOM     20  O   UNL     1      -0.009   0.096   3.857  1.00  0.00    -0.385 OA
ATOM     21  H   UNL     1       0.898  -0.161   3.599  1.00  0.00    +0.211 HD
ENDBRANCH   2  20
BRANCH   3  22
ATOM     22  O   UNL     1      -2.719  -0.463   4.105  1.00  0.00    -0.387 OA
ATOM     23  H   UNL     1      -1.991  -0.433   4.761  1.00  0.00    +0.211 HD
ENDBRANCH   3  22
BRANCH   5  24
ATOM     24  C   UNL     1      -2.038  -0.818  -0.419  1.00  0.00    +0.220 C 
BRANCH  24  25
ATOM     25  O   UNL     1      -1.775  -0.368  -1.746  1.00  0.00    -0.245 OA
BRANCH  25  26
ATOM     26  S   UNL     1      -1.478  -1.490  -2.881  1.00  0.00    +0.397 S 
ATOM     27  O   UNL     1      -0.745  -2.594  -2.304  1.00  0.00    -0.169 OA
ATOM     28  O   UNL     1      -1.037  -0.816  -4.081  1.00  0.00    -0.169 OA
BRANCH  26  29
ATOM     29  O   UNL     1      -2.960  -2.015  -3.227  1.00  0.00    -0.264 OA
ATOM     30  H   UNL     1      -3.312  -1.432  -3.930  1.00  0.00    +0.236 HD
ENDBRANCH  26  29
ENDBRANCH  25  26
ENDBRANCH  24  25
ENDBRANCH   5  24
BRANCH   4  31
ATOM     31  O   UNL     1      -3.569  -1.305   1.806  1.00  0.00    -0.387 OA
ATOM     32  H   UNL     1      -3.708  -1.504   2.759  1.00  0.00    +0.211 HD
ENDBRANCH   4  31
TORSDOF 11
