REMARK SMILES OC[C@@H]1O[C@@H](O[C@H]2[C@@H](O)[C@H](O)[C@@H](O)O[C@@H]2CO)[C@H](O)[C@@H](O)[C@@H]1O
REMARK SMILES IDX 6 1 5 2 3 3 22 4 4 5 20 6 18 7 2 8 1 9 23 11 21 13 19 15
REMARK SMILES IDX 7 17 15 18 8 19 14 20 10 21 12 22 16 23 17 24 9 26 11 28
REMARK SMILES IDX 13 30
REMARK H PARENT 1 10 23 12 21 14 19 16 17 25 9 27 11 29 13 31
ROOT
ATOM      1  O   UNL     1       0.157  -0.027   0.915  1.00  0.00    -0.341 OA
ENDROOT
BRANCH   1   2
ATOM      2  C   UNL     1      -0.700  -1.104   0.528  1.00  0.00    +0.282 C 
ATOM      3  C   UNL     1      -2.399   0.199  -0.535  1.00  0.00    +0.178 C 
ATOM      4  C   UNL     1      -3.530  -0.280   0.405  1.00  0.00    +0.177 C 
ATOM      5  O   UNL     1      -1.401  -0.831  -0.681  1.00  0.00    -0.341 OA
ATOM      6  C   UNL     1      -3.106  -1.527   1.186  1.00  0.00    +0.179 C 
ATOM      7  C   UNL     1      -1.675  -1.397   1.698  1.00  0.00    +0.202 C 
BRANCH   3   8
ATOM      8  C   UNL     1      -2.870   0.628  -1.933  1.00  0.00    +0.191 C 
BRANCH   8   9
ATOM      9  O   UNL     1      -3.564  -0.415  -2.619  1.00  0.00    -0.394 OA
ATOM     10  H   UNL     1      -4.283  -0.687  -2.010  1.00  0.00    +0.210 HD
ENDBRANCH   8   9
ENDBRANCH   3   8
BRANCH   4  11
ATOM     11  O   UNL     1      -4.752  -0.596  -0.284  1.00  0.00    -0.387 OA
ATOM     12  H   UNL     1      -5.345  -0.959   0.406  1.00  0.00    +0.211 HD
ENDBRANCH   4  11
BRANCH   6  13
ATOM     13  O   UNL     1      -4.021  -1.723   2.277  1.00  0.00    -0.387 OA
ATOM     14  H   UNL     1      -3.561  -2.307   2.913  1.00  0.00    +0.211 HD
ENDBRANCH   6  13
BRANCH   7  15
ATOM     15  O   UNL     1      -1.330  -2.612   2.396  1.00  0.00    -0.385 OA
ATOM     16  H   UNL     1      -1.329  -3.341   1.749  1.00  0.00    +0.211 HD
ENDBRANCH   7  15
ENDBRANCH   1   2
BRANCH   1  17
ATOM     17  C   UNL     1       1.351   0.112   0.134  1.00  0.00    +0.184 C 
ATOM     18  C   UNL     1       2.322   1.001   0.949  1.00  0.00    +0.178 C 
ATOM     19  C   UNL     1       1.130   0.753  -1.252  1.00  0.00    +0.180 C 
ATOM     20  O   UNL     1       3.312   1.682   0.148  1.00  0.00    -0.342 OA
ATOM     21  C   UNL     1       2.471   0.898  -2.000  1.00  0.00    +0.201 C 
ATOM     22  C   UNL     1       3.661   0.960  -1.020  1.00  0.00    +0.279 C 
BRANCH  18  23
ATOM     23  C   UNL     1       3.039   0.196   2.042  1.00  0.00    +0.191 C 
BRANCH  23  24
ATOM     24  O   UNL     1       3.888   1.055   2.804  1.00  0.00    -0.394 OA
ATOM     25  H   UNL     1       4.253   1.712   2.180  1.00  0.00    +0.210 HD
ENDBRANCH  23  24
ENDBRANCH  18  23
BRANCH  19  26
ATOM     26  O   UNL     1       0.494   2.038  -1.109  1.00  0.00    -0.387 OA
ATOM     27  H   UNL     1       1.145   2.663  -0.741  1.00  0.00    +0.211 HD
ENDBRANCH  19  26
BRANCH  21  28
ATOM     28  O   UNL     1       2.669  -0.217  -2.883  1.00  0.00    -0.385 OA
ATOM     29  H   UNL     1       3.426   0.023  -3.450  1.00  0.00    +0.211 HD
ENDBRANCH  21  28
BRANCH  22  30
ATOM     30  O   UNL     1       4.740   1.621  -1.662  1.00  0.00    -0.366 OA
ATOM     31  H   UNL     1       5.492   1.546  -1.052  1.00  0.00    +0.213 HD
ENDBRANCH  22  30
ENDBRANCH   1  17
TORSDOF 12
