REMARK SMILES N[C@@H]1[C@@H](O[C@@H]2[C@H](N)[C@H](O[C@@H]3O[C@H](CO)[C@@H](O)[C@H](O[C@@H]4O[C@@H](CO)[C@@H](O)[C@H](O)[C@H]4N)[C@H]3N)O[C@@H](CO[C@H]3O[C@@H](CO)[C@@H](O)[C@H](O)[C@H]3N)[C@H]2O[C@H]2O[C@@H](CO)[C@@H](O)[C@@H](O)[C@H]2N)O[C@H](CO)[C@H](O)[C@H]1O
REMARK SMILES IDX 33 1 47 2 5 3 6 4 8 5 32 6 34 7 35 8 36 9 38 10 41 11 37 12
REMARK SMILES IDX 43 13 45 14 39 15 40 16 42 18 44 20 46 22 48 25 49 26 58 27
REMARK SMILES IDX 50 28 56 29 51 30 54 31 59 32 57 35 52 37 53 38 55 40 4 42
REMARK SMILES IDX 3 43 2 44 60 45 66 46 61 47 64 48 1 49 67 52 62 54 63 55
REMARK SMILES IDX 65 57 9 59 10 60 30 61 11 62 17 63 12 64 15 65 31 66 18 69
REMARK SMILES IDX 19 70 28 71 20 72 26 73 21 74 24 75 29 76 27 79 22 81 23 82
REMARK SMILES IDX 25 84 13 86 14 87 16 89 7 91
REMARK H PARENT 40 17 42 19 44 21 46 23 46 24 59 33 59 34 57 36 53 39 55 41
REMARK H PARENT 1 50 1 51 67 53 63 56 65 58 31 67 31 68 29 77 29 78 27 80
REMARK H PARENT 23 83 25 85 14 88 16 90 7 92 7 93
ROOT
ATOM      1  C   UNL     1      -1.256  -0.182   0.316  1.00  0.00    +0.179 C 
ATOM      2  C   UNL     1      -2.426  -1.186   0.257  1.00  0.00    +0.183 C 
ATOM      3  C   UNL     1      -2.295  -2.128  -0.957  1.00  0.00    +0.175 C 
ATOM      4  C   UNL     1      -0.894  -2.777  -0.971  1.00  0.00    +0.140 C 
ATOM      5  C   UNL     1       0.181  -1.654  -0.934  1.00  0.00    +0.273 C 
ATOM      6  O   UNL     1       0.017  -0.848   0.226  1.00  0.00    -0.342 OA
ENDROOT
BRANCH   1   7
ATOM      7  C   UNL     1      -1.387   0.963  -0.718  1.00  0.00    +0.198 C 
BRANCH   7   8
ATOM      8  O   UNL     1      -0.287   1.873  -0.619  1.00  0.00    -0.348 OA
BRANCH   8   9
ATOM      9  C   UNL     1      -0.616   3.062   0.115  1.00  0.00    +0.270 C 
ATOM     10  C   UNL     1      -1.431   3.851   2.249  1.00  0.00    +0.178 C 
ATOM     11  C   UNL     1      -1.079   5.214   1.630  1.00  0.00    +0.176 C 
ATOM     12  O   UNL     1      -1.137   2.733   1.400  1.00  0.00    -0.342 OA
ATOM     13  C   UNL     1       0.336   5.232   1.033  1.00  0.00    +0.167 C 
ATOM     14  C   UNL     1       0.662   3.946   0.240  1.00  0.00    +0.139 C 
BRANCH  10  15
ATOM     15  C   UNL     1      -0.793   3.588   3.623  1.00  0.00    +0.191 C 
BRANCH  15  16
ATOM     16  O   UNL     1       0.629   3.531   3.543  1.00  0.00    -0.394 OA
ATOM     17  H   UNL     1       0.957   3.326   4.437  1.00  0.00    +0.210 HD
ENDBRANCH  15  16
ENDBRANCH  10  15
BRANCH  11  18
ATOM     18  O   UNL     1      -1.239   6.307   2.543  1.00  0.00    -0.388 OA
ATOM     19  H   UNL     1      -2.183   6.349   2.783  1.00  0.00    +0.211 HD
ENDBRANCH  11  18
BRANCH  13  20
ATOM     20  O   UNL     1       0.431   6.379   0.164  1.00  0.00    -0.388 OA
ATOM     21  H   UNL     1       0.263   7.147   0.743  1.00  0.00    +0.211 HD
ENDBRANCH  13  20
BRANCH  14  22
ATOM     22  N   UNL     1       1.772   3.199   0.906  1.00  0.00    -0.321 NA
ATOM     23  H   UNL     1       1.433   2.994   1.860  1.00  0.00    +0.119 HD
ATOM     24  H   UNL     1       1.795   2.261   0.468  1.00  0.00    +0.119 HD
ENDBRANCH  14  22
ENDBRANCH   8   9
ENDBRANCH   7   8
ENDBRANCH   1   7
BRANCH   2  25
ATOM     25  O   UNL     1      -3.675  -0.477   0.160  1.00  0.00    -0.342 OA
BRANCH  25  26
ATOM     26  C   UNL     1      -4.451  -0.574   1.361  1.00  0.00    +0.270 C 
ATOM     27  C   UNL     1      -5.784   0.208   1.141  1.00  0.00    +0.139 C 
ATOM     28  O   UNL     1      -3.729  -0.036   2.466  1.00  0.00    -0.342 OA
ATOM     29  C   UNL     1      -6.645   0.184   2.435  1.00  0.00    +0.167 C 
ATOM     30  C   UNL     1      -4.452   0.010   3.704  1.00  0.00    +0.178 C 
ATOM     31  C   UNL     1      -5.909  -0.487   3.601  1.00  0.00    +0.176 C 
BRANCH  27  32
ATOM     32  N   UNL     1      -5.537   1.576   0.614  1.00  0.00    -0.321 NA
ATOM     33  H   UNL     1      -5.088   2.114   1.363  1.00  0.00    +0.119 HD
ATOM     34  H   UNL     1      -4.808   1.489  -0.098  1.00  0.00    +0.119 HD
ENDBRANCH  27  32
BRANCH  29  35
ATOM     35  O   UNL     1      -7.061   1.495   2.870  1.00  0.00    -0.388 OA
ATOM     36  H   UNL     1      -7.599   1.329   3.673  1.00  0.00    +0.211 HD
ENDBRANCH  29  35
BRANCH  30  37
ATOM     37  C   UNL     1      -4.280   1.415   4.318  1.00  0.00    +0.191 C 
BRANCH  37  38
ATOM     38  O   UNL     1      -4.692   2.477   3.460  1.00  0.00    -0.394 OA
ATOM     39  H   UNL     1      -5.655   2.359   3.293  1.00  0.00    +0.210 HD
ENDBRANCH  37  38
ENDBRANCH  30  37
BRANCH  31  40
ATOM     40  O   UNL     1      -6.650  -0.287   4.809  1.00  0.00    -0.388 OA
ATOM     41  H   UNL     1      -6.263  -0.863   5.495  1.00  0.00    +0.211 HD
ENDBRANCH  31  40
ENDBRANCH  25  26
ENDBRANCH   2  25
BRANCH   3  42
ATOM     42  O   UNL     1      -3.372  -3.088  -0.892  1.00  0.00    -0.343 OA
BRANCH  42  43
ATOM     43  C   UNL     1      -3.469  -3.947  -2.034  1.00  0.00    +0.270 C 
ATOM     44  C   UNL     1      -4.973  -4.271  -2.236  1.00  0.00    +0.139 C 
ATOM     45  O   UNL     1      -2.692  -5.121  -1.780  1.00  0.00    -0.342 OA
ATOM     46  C   UNL     1      -5.160  -5.389  -3.272  1.00  0.00    +0.167 C 
ATOM     47  C   UNL     1      -2.809  -6.151  -2.767  1.00  0.00    +0.178 C 
ATOM     48  C   UNL     1      -4.276  -6.589  -2.926  1.00  0.00    +0.176 C 
BRANCH  44  49
ATOM     49  N   UNL     1      -5.744  -3.071  -2.644  1.00  0.00    -0.321 NA
ATOM     50  H   UNL     1      -5.744  -2.413  -1.864  1.00  0.00    +0.119 HD
ATOM     51  H   UNL     1      -6.715  -3.370  -2.778  1.00  0.00    +0.119 HD
ENDBRANCH  44  49
BRANCH  46  52
ATOM     52  O   UNL     1      -6.537  -5.808  -3.291  1.00  0.00    -0.388 OA
ATOM     53  H   UNL     1      -6.534  -6.666  -3.762  1.00  0.00    +0.211 HD
ENDBRANCH  46  52
BRANCH  47  54
ATOM     54  C   UNL     1      -2.103  -5.764  -4.080  1.00  0.00    +0.191 C 
BRANCH  54  55
ATOM     55  O   UNL     1      -2.209  -6.815  -5.035  1.00  0.00    -0.394 OA
ATOM     56  H   UNL     1      -1.610  -6.591  -5.774  1.00  0.00    +0.210 HD
ENDBRANCH  54  55
ENDBRANCH  47  54
BRANCH  48  57
ATOM     57  O   UNL     1      -4.482  -7.614  -3.905  1.00  0.00    -0.388 OA
ATOM     58  H   UNL     1      -3.722  -7.588  -4.529  1.00  0.00    +0.211 HD
ENDBRANCH  48  57
ENDBRANCH  42  43
ENDBRANCH   3  42
BRANCH   5  59
ATOM     59  O   UNL     1       1.466  -2.280  -0.927  1.00  0.00    -0.320 OA
BRANCH  59  60
ATOM     60  C   UNL     1       2.510  -1.474  -1.476  1.00  0.00    +0.273 C 
ATOM     61  C   UNL     1       3.327  -0.756  -0.362  1.00  0.00    +0.140 C 
ATOM     62  O   UNL     1       3.345  -2.386  -2.205  1.00  0.00    -0.342 OA
ATOM     63  C   UNL     1       4.566  -0.083  -0.989  1.00  0.00    +0.174 C 
ATOM     64  C   UNL     1       4.450  -1.739  -2.857  1.00  0.00    +0.178 C 
ATOM     65  C   UNL     1       5.370  -1.082  -1.828  1.00  0.00    +0.176 C 
BRANCH  61  66
ATOM     66  N   UNL     1       2.550   0.259   0.377  1.00  0.00    -0.321 NA
ATOM     67  H   UNL     1       3.065   0.509   1.232  1.00  0.00    +0.119 HD
ATOM     68  H   UNL     1       1.675  -0.176   0.706  1.00  0.00    +0.119 HD
ENDBRANCH  61  66
BRANCH  63  69
ATOM     69  O   UNL     1       5.448   0.406   0.042  1.00  0.00    -0.343 OA
BRANCH  69  70
ATOM     70  C   UNL     1       5.370   1.825   0.201  1.00  0.00    +0.270 C 
ATOM     71  C   UNL     1       5.504   2.179   1.712  1.00  0.00    +0.139 C 
ATOM     72  O   UNL     1       6.376   2.428  -0.627  1.00  0.00    -0.342 OA
ATOM     73  C   UNL     1       6.126   3.576   1.811  1.00  0.00    +0.167 C 
ATOM     74  C   UNL     1       7.645   2.557   0.034  1.00  0.00    +0.178 C 
ATOM     75  C   UNL     1       7.538   3.571   1.200  1.00  0.00    +0.176 C 
BRANCH  71  76
ATOM     76  N   UNL     1       4.220   2.094   2.456  1.00  0.00    -0.321 NA
ATOM     77  H   UNL     1       4.375   2.594   3.339  1.00  0.00    +0.119 HD
ATOM     78  H   UNL     1       3.528   2.682   1.965  1.00  0.00    +0.119 HD
ENDBRANCH  71  76
BRANCH  73  79
ATOM     79  O   UNL     1       6.202   4.005   3.181  1.00  0.00    -0.388 OA
ATOM     80  H   UNL     1       6.649   4.873   3.148  1.00  0.00    +0.211 HD
ENDBRANCH  73  79
BRANCH  74  81
ATOM     81  C   UNL     1       8.702   2.916  -1.019  1.00  0.00    +0.191 C 
BRANCH  81  82
ATOM     82  O   UNL     1       8.452   4.210  -1.576  1.00  0.00    -0.394 OA
ATOM     83  H   UNL     1       9.006   4.284  -2.374  1.00  0.00    +0.210 HD
ENDBRANCH  81  82
ENDBRANCH  74  81
BRANCH  75  84
ATOM     84  O   UNL     1       7.844   4.930   0.859  1.00  0.00    -0.388 OA
ATOM     85  H   UNL     1       7.839   4.989  -0.123  1.00  0.00    +0.211 HD
ENDBRANCH  75  84
ENDBRANCH  69  70
ENDBRANCH  63  69
BRANCH  64  86
ATOM     86  C   UNL     1       5.187  -2.809  -3.667  1.00  0.00    +0.191 C 
BRANCH  86  87
ATOM     87  O   UNL     1       4.262  -3.459  -4.546  1.00  0.00    -0.394 OA
ATOM     88  H   UNL     1       3.501  -3.690  -3.977  1.00  0.00    +0.210 HD
ENDBRANCH  86  87
ENDBRANCH  64  86
BRANCH  65  89
ATOM     89  O   UNL     1       6.447  -0.397  -2.479  1.00  0.00    -0.388 OA
ATOM     90  H   UNL     1       6.759   0.274  -1.838  1.00  0.00    +0.211 HD
ENDBRANCH  65  89
ENDBRANCH  59  60
ENDBRANCH   5  59
BRANCH   4  91
ATOM     91  N   UNL     1      -0.747  -3.747   0.143  1.00  0.00    -0.321 NA
ATOM     92  H   UNL     1       0.222  -4.075   0.144  1.00  0.00    +0.119 HD
ATOM     93  H   UNL     1      -1.343  -4.552  -0.065  1.00  0.00    +0.119 HD
ENDBRANCH   4  91
TORSDOF 36
