REMARK SMILES O=C(O)[C@@H]1O[C@@H](O[C@H]2[C@H](O)[C@@H](O)[C@@H](O)O[C@H]2C(=O)O)[C@H](O)[C@@H](O)[C@@H]1O
REMARK SMILES IDX 7 1 6 2 22 3 24 4 20 5 4 6 5 7 23 8 25 10 21 12 2 14 1 15
REMARK SMILES IDX 3 16 8 18 9 19 16 20 11 21 15 22 13 23 10 24 17 26 18 27
REMARK SMILES IDX 19 28 12 30 14 32
REMARK H PARENT 23 9 25 11 21 13 3 17 10 25 19 29 12 31 14 33
ROOT
ATOM      1  O   UNL     1       0.336  -0.988  -0.263  1.00  0.00    -0.340 OA
ENDROOT
BRANCH   1   2
ATOM      2  C   UNL     1       1.207  -0.669   0.820  1.00  0.00    +0.283 C 
ATOM      3  C   UNL     1       3.640  -0.016   0.990  1.00  0.00    +0.180 C 
ATOM      4  C   UNL     1       3.304   1.424   0.565  1.00  0.00    +0.186 C 
ATOM      5  C   UNL     1       2.660  -1.027   0.398  1.00  0.00    +0.202 C 
ATOM      6  C   UNL     1       1.798   1.569   0.300  1.00  0.00    +0.262 C 
ATOM      7  O   UNL     1       1.079   0.704   1.190  1.00  0.00    -0.332 OA
BRANCH   3   8
ATOM      8  O   UNL     1       4.986  -0.322   0.596  1.00  0.00    -0.387 OA
ATOM      9  H   UNL     1       5.049  -1.298   0.572  1.00  0.00    +0.211 HD
ENDBRANCH   3   8
BRANCH   4  10
ATOM     10  O   UNL     1       3.751   2.277   1.630  1.00  0.00    -0.387 OA
ATOM     11  H   UNL     1       4.720   2.160   1.680  1.00  0.00    +0.211 HD
ENDBRANCH   4  10
BRANCH   5  12
ATOM     12  O   UNL     1       3.042  -2.350   0.819  1.00  0.00    -0.385 OA
ATOM     13  H   UNL     1       2.900  -2.420   1.781  1.00  0.00    +0.211 HD
ENDBRANCH   5  12
BRANCH   6  14
ATOM     14  C   UNL     1       1.351   3.024   0.383  1.00  0.00    +0.335 C 
ATOM     15  O   UNL     1       1.832   3.963  -0.234  1.00  0.00    -0.249 OA
BRANCH  14  16
ATOM     16  O   UNL     1       0.282   3.217   1.188  1.00  0.00    -0.479 OA
ATOM     17  H   UNL     1       0.119   4.182   1.132  1.00  0.00    +0.296 HD
ENDBRANCH  14  16
ENDBRANCH   6  14
ENDBRANCH   1   2
BRANCH   1  18
ATOM     18  C   UNL     1      -1.054  -1.108   0.071  1.00  0.00    +0.193 C 
ATOM     19  C   UNL     1      -1.745   0.218   0.462  1.00  0.00    +0.180 C 
ATOM     20  C   UNL     1      -1.807  -1.758  -1.100  1.00  0.00    +0.262 C 
ATOM     21  C   UNL     1      -3.267   0.150   0.267  1.00  0.00    +0.201 C 
ATOM     22  O   UNL     1      -3.134  -2.140  -0.721  1.00  0.00    -0.332 OA
ATOM     23  C   UNL     1      -3.763  -1.308   0.245  1.00  0.00    +0.279 C 
BRANCH  19  24
ATOM     24  O   UNL     1      -1.486   0.476   1.852  1.00  0.00    -0.387 OA
ATOM     25  H   UNL     1      -0.639   0.976   1.874  1.00  0.00    +0.211 HD
ENDBRANCH  19  24
BRANCH  20  26
ATOM     26  C   UNL     1      -1.756  -0.904  -2.379  1.00  0.00    +0.335 C 
ATOM     27  O   UNL     1      -0.942  -0.037  -2.660  1.00  0.00    -0.249 OA
BRANCH  26  28
ATOM     28  O   UNL     1      -2.720  -1.231  -3.269  1.00  0.00    -0.479 OA
ATOM     29  H   UNL     1      -2.596  -0.585  -3.995  1.00  0.00    +0.296 HD
ENDBRANCH  26  28
ENDBRANCH  20  26
BRANCH  21  30
ATOM     30  O   UNL     1      -3.625   0.783  -0.977  1.00  0.00    -0.385 OA
ATOM     31  H   UNL     1      -4.533   0.464  -1.164  1.00  0.00    +0.211 HD
ENDBRANCH  21  30
BRANCH  23  32
ATOM     32  O   UNL     1      -5.149  -1.288  -0.078  1.00  0.00    -0.366 OA
ATOM     33  H   UNL     1      -5.410  -2.225  -0.077  1.00  0.00    +0.213 HD
ENDBRANCH  23  32
ENDBRANCH   1  18
TORSDOF 12
