REMARK SMILES C[C@H](NC(=O)CCC(=O)O)C(=O)N[C@@H](C)C(=O)N1CCC[C@@H]1C(=O)N[C@H](Cc1ccccc1)C(=O)Nc1ccc([N+](=O)[O-])cc1
REMARK SMILES IDX 14 1 15 2 13 3 11 4 12 5 2 7 1 8 3 9 4 10 5 11 6 13 7 14
REMARK SMILES IDX 8 15 9 16 10 17 16 19 17 20 18 21 19 22 22 23 20 24 21 25
REMARK SMILES IDX 23 26 24 27 25 28 26 30 27 31 28 32 29 33 33 34 30 35 32 36
REMARK SMILES IDX 31 37 34 38 35 39 36 40 37 42 38 43 45 44 39 45 44 46 40 47
REMARK SMILES IDX 41 48 42 49 43 50
REMARK H PARENT 13 6 3 12 10 18 25 29 36 41
ROOT
ATOM      1  C   UNL     1       3.229   2.813   0.971  1.00  0.00    +0.168 C 
ATOM      2  C   UNL     1       3.908   4.095   0.501  1.00  0.00    +0.041 C 
ENDROOT
BRANCH   1   3
ATOM      3  N   UNL     1       4.186   1.713   1.017  1.00  0.00    -0.343 N 
ATOM      4  C   UNL     1       5.082   1.534   2.047  1.00  0.00    +0.242 C 
ATOM      5  O   UNL     1       5.151   2.305   3.000  1.00  0.00    -0.273 OA
ATOM      6  H   UNL     1       4.060   0.959   0.344  1.00  0.00    +0.164 HD
BRANCH   4   7
ATOM      7  C   UNL     1       5.879   0.217   1.951  1.00  0.00    +0.168 C 
ATOM      8  C   UNL     1       7.193   0.308   2.715  1.00  0.00    +0.041 C 
BRANCH   7   9
ATOM      9  N   UNL     1       6.109  -0.130   0.546  1.00  0.00    -0.345 N 
ATOM     10  C   UNL     1       6.281  -1.435   0.146  1.00  0.00    +0.221 C 
ATOM     11  O   UNL     1       6.144  -2.394   0.896  1.00  0.00    -0.275 OA
ATOM     12  H   UNL     1       6.416   0.614  -0.070  1.00  0.00    +0.164 HD
BRANCH  10  13
ATOM     13  C   UNL     1       6.602  -1.568  -1.329  1.00  0.00    +0.111 C 
BRANCH  13  14
ATOM     14  C   UNL     1       7.062  -2.977  -1.681  1.00  0.00    +0.132 C 
BRANCH  14  15
ATOM     15  C   UNL     1       8.431  -3.249  -1.122  1.00  0.00    +0.303 C 
ATOM     16  O   UNL     1       9.232  -2.428  -0.710  1.00  0.00    -0.252 OA
BRANCH  15  17
ATOM     17  O   UNL     1       8.745  -4.558  -1.162  1.00  0.00    -0.481 OA
ATOM     18  H   UNL     1       9.635  -4.603  -0.754  1.00  0.00    +0.296 HD
ENDBRANCH  15  17
ENDBRANCH  14  15
ENDBRANCH  13  14
ENDBRANCH  10  13
ENDBRANCH   7   9
ENDBRANCH   4   7
ENDBRANCH   1   3
BRANCH   1  19
ATOM     19  C   UNL     1       2.114   2.406  -0.013  1.00  0.00    +0.245 C 
ATOM     20  O   UNL     1       2.333   1.568  -0.896  1.00  0.00    -0.272 OA
BRANCH  19  21
ATOM     21  N   UNL     1       0.891   3.026   0.096  1.00  0.00    -0.329 N 
ATOM     22  C   UNL     1       0.466   3.998   1.092  1.00  0.00    +0.120 C 
ATOM     23  C   UNL     1      -0.204   2.664  -0.797  1.00  0.00    +0.174 C 
ATOM     24  C   UNL     1      -1.030   4.171   0.861  1.00  0.00    +0.024 C 
ATOM     25  C   UNL     1      -1.211   3.798  -0.608  1.00  0.00    +0.037 C 
BRANCH  23  26
ATOM     26  C   UNL     1      -0.837   1.311  -0.400  1.00  0.00    +0.243 C 
ATOM     27  O   UNL     1      -0.701   0.795   0.708  1.00  0.00    -0.273 OA
ATOM     28  N   UNL     1      -1.626   0.749  -1.389  1.00  0.00    -0.342 N 
ATOM     29  H   UNL     1      -1.982   1.384  -2.095  1.00  0.00    +0.164 HD
BRANCH  28  30
ATOM     30  C   UNL     1      -2.507  -0.377  -1.069  1.00  0.00    +0.176 C 
BRANCH  30  31
ATOM     31  C   UNL     1      -2.611  -1.335  -2.265  1.00  0.00    +0.070 C 
BRANCH  31  32
ATOM     32  C   UNL     1      -3.252  -2.658  -1.915  1.00  0.00    -0.045 A 
ATOM     33  C   UNL     1      -4.559  -2.948  -2.328  1.00  0.00    +0.004 A 
ATOM     34  C   UNL     1      -2.558  -3.597  -1.139  1.00  0.00    +0.004 A 
ATOM     35  C   UNL     1      -5.165  -4.151  -1.962  1.00  0.00    +0.000 A 
ATOM     36  C   UNL     1      -3.166  -4.799  -0.775  1.00  0.00    +0.000 A 
ATOM     37  C   UNL     1      -4.469  -5.074  -1.184  1.00  0.00    +0.000 A 
ENDBRANCH  31  32
ENDBRANCH  30  31
BRANCH  30  38
ATOM     38  C   UNL     1      -3.893   0.222  -0.725  1.00  0.00    +0.247 C 
ATOM     39  O   UNL     1      -4.225   1.322  -1.168  1.00  0.00    -0.272 OA
ATOM     40  N   UNL     1      -4.677  -0.616   0.049  1.00  0.00    -0.324 N 
ATOM     41  H   UNL     1      -4.276  -1.518   0.287  1.00  0.00    +0.170 HD
BRANCH  40  42
ATOM     42  C   UNL     1      -5.992  -0.395   0.502  1.00  0.00    +0.041 A 
ATOM     43  C   UNL     1      -6.705   0.788   0.290  1.00  0.00    +0.033 A 
ATOM     44  C   UNL     1      -6.603  -1.442   1.208  1.00  0.00    +0.033 A 
ATOM     45  C   UNL     1      -8.012   0.930   0.772  1.00  0.00    +0.088 A 
ATOM     46  C   UNL     1      -7.909  -1.313   1.694  1.00  0.00    +0.088 A 
ATOM     47  C   UNL     1      -8.610  -0.123   1.473  1.00  0.00    +0.269 A 
BRANCH  47  48
ATOM     48  N   UNL     1      -9.981   0.021   1.978  1.00  0.00    +0.062 N 
ATOM     49  O   UNL     1     -10.476  -0.942   2.581  1.00  0.00    -0.258 OA
ATOM     50  O   UNL     1     -10.563   1.095   1.769  1.00  0.00    -0.258 OA
ENDBRANCH  47  48
ENDBRANCH  40  42
ENDBRANCH  30  38
ENDBRANCH  28  30
ENDBRANCH  23  26
ENDBRANCH  19  21
ENDBRANCH   1  19
TORSDOF 16
