REMARK SMILES O=C[C@@H](O)[C@@H](O)[C@H](CO)O[C@H]1OC[C@@H](O[C@@H]2OC[C@H](O[C@H]3OC[C@H](O[C@H]4OC[C@H](O)[C@H](O)[C@@H]4O)[C@@H](O)[C@H]3O)[C@H](O)[C@@H]2O)[C@@H](O)[C@H]1O
REMARK SMILES IDX 15 1 16 2 19 3 18 4 39 5 17 6 41 7 20 8 21 9 24 10 23 11
REMARK SMILES IDX 35 12 22 13 37 14 25 15 26 16 28 17 29 18 27 19 31 20 33 21
REMARK SMILES IDX 30 22 32 24 34 26 36 28 38 30 40 32 42 34 14 36 13 37 43 38
REMARK SMILES IDX 12 39 45 40 11 41 44 42 46 44 10 46 7 47 8 48 9 49 5 51 3 52
REMARK SMILES IDX 2 53 1 54 4 55 6 57
REMARK H PARENT 30 23 32 25 34 27 36 29 38 31 40 33 42 35 44 43 46 45 9 50
REMARK H PARENT 4 56 6 58
ROOT
ATOM      1  O   UNL     1      -2.357   0.407   0.914  1.00  0.00    -0.341 OA
ENDROOT
BRANCH   1   2
ATOM      2  C   UNL     1      -1.284   1.246   0.477  1.00  0.00    +0.282 C 
ATOM      3  C   UNL     1       1.428   0.814  -0.643  1.00  0.00    +0.179 C 
ATOM      4  C   UNL     1       0.114   0.217  -1.172  1.00  0.00    +0.198 C 
ATOM      5  C   UNL     1       1.186   1.574   0.683  1.00  0.00    +0.179 C 
ATOM      6  O   UNL     1      -0.992   1.078  -0.916  1.00  0.00    -0.347 OA
ATOM      7  C   UNL     1      -0.057   1.050   1.404  1.00  0.00    +0.202 C 
BRANCH   3   8
ATOM      8  O   UNL     1       2.429  -0.190  -0.406  1.00  0.00    -0.341 OA
BRANCH   8   9
ATOM      9  C   UNL     1       2.939  -0.810  -1.592  1.00  0.00    +0.282 C 
ATOM     10  C   UNL     1       5.428   0.088  -0.766  1.00  0.00    +0.179 C 
ATOM     11  C   UNL     1       4.969   0.341  -2.207  1.00  0.00    +0.198 C 
ATOM     12  C   UNL     1       5.064  -1.350  -0.342  1.00  0.00    +0.179 C 
ATOM     13  O   UNL     1       3.568   0.160  -2.430  1.00  0.00    -0.347 OA
ATOM     14  C   UNL     1       3.923  -1.931  -1.196  1.00  0.00    +0.202 C 
BRANCH  10  15
ATOM     15  O   UNL     1       6.837   0.356  -0.707  1.00  0.00    -0.341 OA
BRANCH  15  16
ATOM     16  C   UNL     1       7.380   0.298   0.618  1.00  0.00    +0.282 C 
ATOM     17  C   UNL     1       8.660  -1.132   2.012  1.00  0.00    +0.198 C 
ATOM     18  C   UNL     1       9.971  -0.355   1.851  1.00  0.00    +0.171 C 
ATOM     19  O   UNL     1       7.865  -1.034   0.834  1.00  0.00    -0.347 OA
ATOM     20  C   UNL     1       9.884   0.656   0.694  1.00  0.00    +0.179 C 
ATOM     21  C   UNL     1       8.519   1.348   0.706  1.00  0.00    +0.202 C 
BRANCH  18  22
ATOM     22  O   UNL     1      10.288   0.343   3.067  1.00  0.00    -0.388 OA
ATOM     23  H   UNL     1       9.554   0.976   3.220  1.00  0.00    +0.211 HD
ENDBRANCH  18  22
BRANCH  20  24
ATOM     24  O   UNL     1      10.916   1.650   0.833  1.00  0.00    -0.387 OA
ATOM     25  H   UNL     1      11.345   1.475   1.697  1.00  0.00    +0.211 HD
ENDBRANCH  20  24
BRANCH  21  26
ATOM     26  O   UNL     1       8.425   2.100   1.940  1.00  0.00    -0.385 OA
ATOM     27  H   UNL     1       9.098   2.805   1.842  1.00  0.00    +0.211 HD
ENDBRANCH  21  26
ENDBRANCH  15  16
ENDBRANCH  10  15
BRANCH  12  28
ATOM     28  O   UNL     1       4.685  -1.345   1.051  1.00  0.00    -0.387 OA
ATOM     29  H   UNL     1       3.930  -1.964   1.127  1.00  0.00    +0.211 HD
ENDBRANCH  12  28
BRANCH  14  30
ATOM     30  O   UNL     1       3.278  -2.990  -0.474  1.00  0.00    -0.385 OA
ATOM     31  H   UNL     1       3.917  -3.723  -0.400  1.00  0.00    +0.211 HD
ENDBRANCH  14  30
ENDBRANCH   8   9
ENDBRANCH   3   8
BRANCH   5  32
ATOM     32  O   UNL     1       2.325   1.468   1.550  1.00  0.00    -0.387 OA
ATOM     33  H   UNL     1       2.842   0.703   1.217  1.00  0.00    +0.211 HD
ENDBRANCH   5  32
BRANCH   7  34
ATOM     34  O   UNL     1       0.146  -0.339   1.733  1.00  0.00    -0.385 OA
ATOM     35  H   UNL     1       0.954  -0.362   2.281  1.00  0.00    +0.211 HD
ENDBRANCH   7  34
ENDBRANCH   1   2
BRANCH   1  36
ATOM     36  C   UNL     1      -3.524   0.494   0.094  1.00  0.00    +0.179 C 
ATOM     37  C   UNL     1      -4.785   0.429   0.955  1.00  0.00    +0.198 C 
ATOM     38  C   UNL     1      -3.533  -0.669  -0.920  1.00  0.00    +0.179 C 
ATOM     39  O   UNL     1      -5.984   0.605   0.191  1.00  0.00    -0.347 OA
ATOM     40  C   UNL     1      -4.960  -1.126  -1.267  1.00  0.00    +0.202 C 
ATOM     41  C   UNL     1      -5.939   0.060  -1.136  1.00  0.00    +0.282 C 
BRANCH  38  42
ATOM     42  O   UNL     1      -2.804  -1.809  -0.420  1.00  0.00    -0.387 OA
ATOM     43  H   UNL     1      -2.171  -1.450   0.240  1.00  0.00    +0.211 HD
ENDBRANCH  38  42
BRANCH  40  44
ATOM     44  O   UNL     1      -5.336  -2.201  -0.379  1.00  0.00    -0.385 OA
ATOM     45  H   UNL     1      -4.507  -2.706  -0.241  1.00  0.00    +0.211 HD
ENDBRANCH  40  44
BRANCH  41  46
ATOM     46  O   UNL     1      -7.243  -0.367  -1.529  1.00  0.00    -0.341 OA
BRANCH  46  47
ATOM     47  C   UNL     1      -8.215   0.689  -1.601  1.00  0.00    +0.178 C 
BRANCH  47  48
ATOM     48  C   UNL     1      -8.845   0.664  -2.998  1.00  0.00    +0.191 C 
BRANCH  48  49
ATOM     49  O   UNL     1      -9.778   1.725  -3.155  1.00  0.00    -0.394 OA
ATOM     50  H   UNL     1     -10.314   1.511  -3.940  1.00  0.00    +0.210 HD
ENDBRANCH  48  49
ENDBRANCH  47  48
BRANCH  47  51
ATOM     51  C   UNL     1      -9.239   0.540  -0.444  1.00  0.00    +0.181 C 
BRANCH  51  52
ATOM     52  C   UNL     1      -9.828  -0.872  -0.286  1.00  0.00    +0.209 C 
BRANCH  52  53
ATOM     53  C   UNL     1     -10.801  -0.886   0.886  1.00  0.00    +0.258 C 
ATOM     54  O   UNL     1     -11.911  -1.416   0.815  1.00  0.00    -0.300 OA
ENDBRANCH  52  53
BRANCH  52  55
ATOM     55  O   UNL     1     -10.527  -1.298  -1.456  1.00  0.00    -0.383 OA
ATOM     56  H   UNL     1     -11.249  -1.880  -1.140  1.00  0.00    +0.211 HD
ENDBRANCH  52  55
ENDBRANCH  51  52
BRANCH  51  57
ATOM     57  O   UNL     1      -8.598   0.901   0.800  1.00  0.00    -0.387 OA
ATOM     58  H   UNL     1      -7.652   0.645   0.719  1.00  0.00    +0.211 HD
ENDBRANCH  51  57
ENDBRANCH  47  51
ENDBRANCH  46  47
ENDBRANCH  41  46
ENDBRANCH   1  36
TORSDOF 24
