MODEL 1
REMARK VINA RESULT:    -8.005      0.000      0.000
REMARK INTER + INTRA:         -12.720
REMARK INTER:                 -11.748
REMARK INTRA:                  -0.971
REMARK UNBOUND:                -0.971
REMARK SMILES O=S(=O)(O)OC[C@@H]1O[C@H](O[C@H]2[C@@H]3OC[C@H]2O[C@@H](O)[C@H]3O)[C@@H](O)[C@H](O)[C@@H]1O
REMARK SMILES IDX 9 1 21 2 23 3 25 4 7 5 8 6 10 7 11 8 14 9 15 10 13 11 16 12
REMARK SMILES IDX 12 13 17 14 19 15 18 16 20 18 22 20 24 22 6 24 5 25 2 26
REMARK SMILES IDX 1 27 3 28 4 29 26 31
REMARK H PARENT 18 17 20 19 22 21 24 23 4 30 26 32
ROOT
ATOM      1  C   UNL     1      12.560   5.924  18.277  1.00  0.00    +0.282 C 
ATOM      2  C   UNL     1      13.191   7.310  18.516  1.00  0.00    +0.202 C 
ATOM      3  C   UNL     1      13.666   7.851  17.179  1.00  0.00    +0.179 C 
ATOM      4  C   UNL     1      12.458   8.078  16.266  1.00  0.00    +0.177 C 
ATOM      5  C   UNL     1      11.362   6.998  16.438  1.00  0.00    +0.180 C 
ATOM      6  O   UNL     1      11.872   5.791  17.035  1.00  0.00    -0.341 OA
ENDROOT
BRANCH   1   7
ATOM      7  O   UNL     1      11.742   5.615  19.409  1.00  0.00    -0.341 OA
BRANCH   7   8
ATOM      8  C   UNL     1      12.047   4.348  19.985  1.00  0.00    +0.184 C 
ATOM      9  C   UNL     1      11.463   2.394  21.139  1.00  0.00    +0.195 C 
ATOM     10  C   UNL     1      10.841   3.454  20.229  1.00  0.00    +0.179 C 
ATOM     11  O   UNL     1      12.475   3.084  21.917  1.00  0.00    -0.370 OA
ATOM     12  O   UNL     1       9.784   4.198  20.861  1.00  0.00    -0.342 OA
ATOM     13  C   UNL     1      12.507   4.452  21.434  1.00  0.00    +0.184 C 
ATOM     14  C   UNL     1      10.088   4.777  22.125  1.00  0.00    +0.279 C 
ATOM     15  C   UNL     1      11.530   5.320  22.239  1.00  0.00    +0.202 C 
BRANCH  14  16
ATOM     16  O   UNL     1       9.840   3.811  23.142  1.00  0.00    -0.366 OA
ATOM     17  H   UNL     1       9.121   4.195  23.674  1.00  0.00    +0.213 HD
ENDBRANCH  14  16
BRANCH  15  18
ATOM     18  O   UNL     1      11.942   5.391  23.611  1.00  0.00    -0.385 OA
ATOM     19  H   UNL     1      12.134   4.459  23.848  1.00  0.00    +0.211 HD
ENDBRANCH  15  18
ENDBRANCH   7   8
ENDBRANCH   1   7
BRANCH   2  20
ATOM     20  O   UNL     1      14.309   7.229  19.417  1.00  0.00    -0.385 OA
ATOM     21  H   UNL     1      14.811   8.059  19.300  1.00  0.00    +0.211 HD
ENDBRANCH   2  20
BRANCH   3  22
ATOM     22  O   UNL     1      14.362   9.096  17.361  1.00  0.00    -0.387 OA
ATOM     23  H   UNL     1      13.891   9.733  16.783  1.00  0.00    +0.211 HD
ENDBRANCH   3  22
BRANCH   5  24
ATOM     24  C   UNL     1      10.074   7.480  17.129  1.00  0.00    +0.220 C 
BRANCH  24  25
ATOM     25  O   UNL     1       9.000   7.395  16.194  1.00  0.00    -0.245 OA
BRANCH  25  26
ATOM     26  S   UNL     1       8.107   6.039  16.190  1.00  0.00    +0.397 S 
ATOM     27  O   UNL     1       6.705   6.373  16.072  1.00  0.00    -0.169 OA
ATOM     28  O   UNL     1       8.606   5.163  17.226  1.00  0.00    -0.169 OA
BRANCH  26  29
ATOM     29  O   UNL     1       8.561   5.344  14.811  1.00  0.00    -0.264 OA
ATOM     30  H   UNL     1       8.336   4.395  14.883  1.00  0.00    +0.236 HD
ENDBRANCH  26  29
ENDBRANCH  25  26
ENDBRANCH  24  25
ENDBRANCH   5  24
BRANCH   4  31
ATOM     31  O   UNL     1      11.938   9.392  16.495  1.00  0.00    -0.387 OA
ATOM     32  H   UNL     1      11.576   9.674  15.625  1.00  0.00    +0.211 HD
ENDBRANCH   4  31
TORSDOF 11
ENDMDL
MODEL 2
REMARK VINA RESULT:    -7.764     31.357     34.331
REMARK INTER + INTRA:         -12.366
REMARK INTER:                 -11.623
REMARK INTRA:                  -0.742
REMARK UNBOUND:                -0.971
REMARK SMILES O=S(=O)(O)OC[C@@H]1O[C@H](O[C@H]2[C@@H]3OC[C@H]2O[C@@H](O)[C@H]3O)[C@@H](O)[C@H](O)[C@@H]1O
REMARK SMILES IDX 9 1 21 2 23 3 25 4 7 5 8 6 10 7 11 8 14 9 15 10 13 11 16 12
REMARK SMILES IDX 12 13 17 14 19 15 18 16 20 18 22 20 24 22 6 24 5 25 2 26
REMARK SMILES IDX 1 27 3 28 4 29 26 31
REMARK H PARENT 18 17 20 19 22 21 24 23 4 30 26 32
ROOT
ATOM      1  C   UNL     1      -6.966 -11.262  -3.042  1.00  0.00    +0.282 C 
ATOM      2  C   UNL     1      -6.831  -9.806  -2.555  1.00  0.00    +0.202 C 
ATOM      3  C   UNL     1      -6.082  -9.816  -1.234  1.00  0.00    +0.179 C 
ATOM      4  C   UNL     1      -4.658 -10.330  -1.463  1.00  0.00    +0.177 C 
ATOM      5  C   UNL     1      -4.587 -11.457  -2.522  1.00  0.00    +0.180 C 
ATOM      6  O   UNL     1      -5.859 -12.102  -2.721  1.00  0.00    -0.341 OA
ENDROOT
BRANCH   1   7
ATOM      7  O   UNL     1      -7.261 -11.230  -4.441  1.00  0.00    -0.341 OA
BRANCH   7   8
ATOM      8  C   UNL     1      -8.648 -11.058  -4.713  1.00  0.00    +0.184 C 
ATOM      9  C   UNL     1     -10.720 -11.809  -5.512  1.00  0.00    +0.195 C 
ATOM     10  C   UNL     1      -9.423 -12.352  -4.909  1.00  0.00    +0.179 C 
ATOM     11  O   UNL     1     -10.338 -10.647  -6.292  1.00  0.00    -0.370 OA
ATOM     12  O   UNL     1      -8.710 -13.236  -5.792  1.00  0.00    -0.342 OA
ATOM     13  C   UNL     1      -8.912 -10.465  -6.092  1.00  0.00    +0.184 C 
ATOM     14  C   UNL     1      -8.455 -12.745  -7.104  1.00  0.00    +0.279 C 
ATOM     15  C   UNL     1      -8.125 -11.237  -7.160  1.00  0.00    +0.202 C 
BRANCH  14  16
ATOM     16  O   UNL     1      -9.580 -13.038  -7.929  1.00  0.00    -0.366 OA
ATOM     17  H   UNL     1     -10.267 -12.413  -7.636  1.00  0.00    +0.213 HD
ENDBRANCH  14  16
BRANCH  15  18
ATOM     18  O   UNL     1      -8.399 -10.703  -8.462  1.00  0.00    -0.385 OA
ATOM     19  H   UNL     1      -7.945 -11.324  -9.072  1.00  0.00    +0.211 HD
ENDBRANCH  15  18
ENDBRANCH   7   8
ENDBRANCH   1   7
BRANCH   2  20
ATOM     20  O   UNL     1      -8.118  -9.195  -2.364  1.00  0.00    -0.385 OA
ATOM     21  H   UNL     1      -8.113  -8.833  -1.456  1.00  0.00    +0.211 HD
ENDBRANCH   2  20
BRANCH   3  22
ATOM     22  O   UNL     1      -6.023  -8.491  -0.680  1.00  0.00    -0.387 OA
ATOM     23  H   UNL     1      -5.695  -8.616   0.235  1.00  0.00    +0.211 HD
ENDBRANCH   3  22
BRANCH   5  24
ATOM     24  C   UNL     1      -3.930 -11.058  -3.856  1.00  0.00    +0.220 C 
BRANCH  24  25
ATOM     25  O   UNL     1      -2.548 -11.404  -3.801  1.00  0.00    -0.245 OA
BRANCH  25  26
ATOM     26  S   UNL     1      -2.146 -12.957  -4.049  1.00  0.00    +0.397 S 
ATOM     27  O   UNL     1      -3.055 -13.557  -4.999  1.00  0.00    -0.169 OA
ATOM     28  O   UNL     1      -1.860 -13.562  -2.768  1.00  0.00    -0.169 OA
BRANCH  26  29
ATOM     29  O   UNL     1      -0.711 -12.819  -4.766  1.00  0.00    -0.264 OA
ATOM     30  H   UNL     1      -0.392 -11.910  -4.593  1.00  0.00    +0.236 HD
ENDBRANCH  26  29
ENDBRANCH  25  26
ENDBRANCH  24  25
ENDBRANCH   5  24
BRANCH   4  31
ATOM     31  O   UNL     1      -3.812  -9.229  -1.814  1.00  0.00    -0.387 OA
ATOM     32  H   UNL     1      -3.259  -9.563  -2.555  1.00  0.00    +0.211 HD
ENDBRANCH   4  31
TORSDOF 11
ENDMDL
MODEL 3
REMARK VINA RESULT:    -7.537      2.212      4.569
REMARK INTER + INTRA:         -12.034
REMARK INTER:                 -10.980
REMARK INTRA:                  -1.054
REMARK UNBOUND:                -0.971
REMARK SMILES O=S(=O)(O)OC[C@@H]1O[C@H](O[C@H]2[C@@H]3OC[C@H]2O[C@@H](O)[C@H]3O)[C@@H](O)[C@H](O)[C@@H]1O
REMARK SMILES IDX 9 1 21 2 23 3 25 4 7 5 8 6 10 7 11 8 14 9 15 10 13 11 16 12
REMARK SMILES IDX 12 13 17 14 19 15 18 16 20 18 22 20 24 22 6 24 5 25 2 26
REMARK SMILES IDX 1 27 3 28 4 29 26 31
REMARK H PARENT 18 17 20 19 22 21 24 23 4 30 26 32
ROOT
ATOM      1  C   UNL     1      10.311   6.774  19.009  1.00  0.00    +0.282 C 
ATOM      2  C   UNL     1      10.274   5.843  17.782  1.00  0.00    +0.202 C 
ATOM      3  C   UNL     1       9.521   6.554  16.670  1.00  0.00    +0.179 C 
ATOM      4  C   UNL     1      10.304   7.799  16.245  1.00  0.00    +0.177 C 
ATOM      5  C   UNL     1      10.996   8.511  17.432  1.00  0.00    +0.180 C 
ATOM      6  O   UNL     1      10.405   8.163  18.699  1.00  0.00    -0.341 OA
ENDROOT
BRANCH   1   7
ATOM      7  O   UNL     1      11.357   6.319  19.872  1.00  0.00    -0.341 OA
BRANCH   7   8
ATOM      8  C   UNL     1      11.032   6.446  21.253  1.00  0.00    +0.184 C 
ATOM      9  C   UNL     1      11.531   6.240  23.534  1.00  0.00    +0.195 C 
ATOM     10  C   UNL     1      12.230   6.450  22.190  1.00  0.00    +0.179 C 
ATOM     11  O   UNL     1      10.378   5.406  23.254  1.00  0.00    -0.370 OA
ATOM     12  O   UNL     1      13.139   5.388  21.849  1.00  0.00    -0.342 OA
ATOM     13  C   UNL     1      10.351   5.205  21.817  1.00  0.00    +0.184 C 
ATOM     14  C   UNL     1      12.615   4.066  21.910  1.00  0.00    +0.279 C 
ATOM     15  C   UNL     1      11.147   3.947  21.443  1.00  0.00    +0.202 C 
BRANCH  14  16
ATOM     16  O   UNL     1      12.753   3.581  23.243  1.00  0.00    -0.366 OA
ATOM     17  H   UNL     1      13.352   2.817  23.164  1.00  0.00    +0.213 HD
ENDBRANCH  14  16
BRANCH  15  18
ATOM     18  O   UNL     1      10.527   2.781  22.002  1.00  0.00    -0.385 OA
ATOM     19  H   UNL     1       9.949   2.452  21.281  1.00  0.00    +0.211 HD
ENDBRANCH  15  18
ENDBRANCH   7   8
ENDBRANCH   1   7
BRANCH   2  20
ATOM     20  O   UNL     1       9.611   4.603  18.084  1.00  0.00    -0.385 OA
ATOM     21  H   UNL     1       8.657   4.765  17.943  1.00  0.00    +0.211 HD
ENDBRANCH   2  20
BRANCH   3  22
ATOM     22  O   UNL     1       9.362   5.684  15.536  1.00  0.00    -0.387 OA
ATOM     23  H   UNL     1       9.104   4.819  15.919  1.00  0.00    +0.211 HD
ENDBRANCH   3  22
BRANCH   5  24
ATOM     24  C   UNL     1      12.530   8.388  17.462  1.00  0.00    +0.220 C 
BRANCH  24  25
ATOM     25  O   UNL     1      13.080   9.370  16.587  1.00  0.00    -0.245 OA
BRANCH  25  26
ATOM     26  S   UNL     1      14.529   9.995  16.965  1.00  0.00    +0.397 S 
ATOM     27  O   UNL     1      14.753  11.211  16.217  1.00  0.00    -0.169 OA
ATOM     28  O   UNL     1      15.494   8.920  16.994  1.00  0.00    -0.169 OA
BRANCH  26  29
ATOM     29  O   UNL     1      14.324  10.403  18.509  1.00  0.00    -0.264 OA
ATOM     30  H   UNL     1      13.945   9.622  18.962  1.00  0.00    +0.236 HD
ENDBRANCH  26  29
ENDBRANCH  25  26
ENDBRANCH  24  25
ENDBRANCH   5  24
BRANCH   4  31
ATOM     31  O   UNL     1      11.248   7.436  15.231  1.00  0.00    -0.387 OA
ATOM     32  H   UNL     1      11.480   6.500  15.427  1.00  0.00    +0.211 HD
ENDBRANCH   4  31
TORSDOF 11
ENDMDL
MODEL 4
REMARK VINA RESULT:    -7.430     28.540     30.421
REMARK INTER + INTRA:         -11.877
REMARK INTER:                 -10.514
REMARK INTRA:                  -1.362
REMARK UNBOUND:                -0.971
REMARK SMILES O=S(=O)(O)OC[C@@H]1O[C@H](O[C@H]2[C@@H]3OC[C@H]2O[C@@H](O)[C@H]3O)[C@@H](O)[C@H](O)[C@@H]1O
REMARK SMILES IDX 9 1 21 2 23 3 25 4 7 5 8 6 10 7 11 8 14 9 15 10 13 11 16 12
REMARK SMILES IDX 12 13 17 14 19 15 18 16 20 18 22 20 24 22 6 24 5 25 2 26
REMARK SMILES IDX 1 27 3 28 4 29 26 31
REMARK H PARENT 18 17 20 19 22 21 24 23 4 30 26 32
ROOT
ATOM      1  C   UNL     1      -2.183   1.721  -8.272  1.00  0.00    +0.282 C 
ATOM      2  C   UNL     1      -1.343   2.665  -7.390  1.00  0.00    +0.202 C 
ATOM      3  C   UNL     1      -1.888   4.074  -7.551  1.00  0.00    +0.179 C 
ATOM      4  C   UNL     1      -3.318   4.129  -7.005  1.00  0.00    +0.177 C 
ATOM      5  C   UNL     1      -4.122   2.838  -7.291  1.00  0.00    +0.180 C 
ATOM      6  O   UNL     1      -3.562   2.072  -8.374  1.00  0.00    -0.341 OA
ENDROOT
BRANCH   1   7
ATOM      7  O   UNL     1      -1.976   0.385  -7.804  1.00  0.00    -0.341 OA
BRANCH   7   8
ATOM      8  C   UNL     1      -2.615  -0.593  -8.618  1.00  0.00    +0.184 C 
ATOM      9  C   UNL     1      -3.141  -2.806  -9.183  1.00  0.00    +0.195 C 
ATOM     10  C   UNL     1      -2.775  -1.957  -7.964  1.00  0.00    +0.179 C 
ATOM     11  O   UNL     1      -2.430  -2.219 -10.303  1.00  0.00    -0.370 OA
ATOM     12  O   UNL     1      -1.545  -2.361  -7.337  1.00  0.00    -0.342 OA
ATOM     13  C   UNL     1      -1.752  -1.042  -9.792  1.00  0.00    +0.184 C 
ATOM     14  C   UNL     1      -0.412  -2.481  -8.191  1.00  0.00    +0.279 C 
ATOM     15  C   UNL     1      -0.345  -1.412  -9.304  1.00  0.00    +0.202 C 
BRANCH  14  16
ATOM     16  O   UNL     1      -0.402  -3.789  -8.757  1.00  0.00    -0.366 OA
ATOM     17  H   UNL     1       0.311  -4.254  -8.284  1.00  0.00    +0.213 HD
ENDBRANCH  14  16
BRANCH  15  18
ATOM     18  O   UNL     1       0.458  -1.868 -10.401  1.00  0.00    -0.385 OA
ATOM     19  H   UNL     1      -0.061  -2.608 -10.783  1.00  0.00    +0.211 HD
ENDBRANCH  15  18
ENDBRANCH   7   8
ENDBRANCH   1   7
BRANCH   2  20
ATOM     20  O   UNL     1       0.043   2.648  -7.773  1.00  0.00    -0.385 OA
ATOM     21  H   UNL     1       0.114   2.001  -8.502  1.00  0.00    +0.211 HD
ENDBRANCH   2  20
BRANCH   3  22
ATOM     22  O   UNL     1      -1.071   5.013  -6.832  1.00  0.00    -0.387 OA
ATOM     23  H   UNL     1      -0.545   4.464  -6.212  1.00  0.00    +0.211 HD
ENDBRANCH   3  22
BRANCH   5  24
ATOM     24  C   UNL     1      -4.410   1.962  -6.058  1.00  0.00    +0.220 C 
BRANCH  24  25
ATOM     25  O   UNL     1      -5.695   2.310  -5.546  1.00  0.00    -0.245 OA
BRANCH  25  26
ATOM     26  S   UNL     1      -5.782   2.832  -4.011  1.00  0.00    +0.397 S 
ATOM     27  O   UNL     1      -6.718   2.021  -3.267  1.00  0.00    -0.169 OA
ATOM     28  O   UNL     1      -5.855   4.275  -4.026  1.00  0.00    -0.169 OA
BRANCH  26  29
ATOM     29  O   UNL     1      -4.305   2.502  -3.462  1.00  0.00    -0.264 OA
ATOM     30  H   UNL     1      -3.791   3.334  -3.510  1.00  0.00    +0.236 HD
ENDBRANCH  26  29
ENDBRANCH  25  26
ENDBRANCH  24  25
ENDBRANCH   5  24
BRANCH   4  31
ATOM     31  O   UNL     1      -3.274   4.419  -5.603  1.00  0.00    -0.387 OA
ATOM     32  H   UNL     1      -2.924   3.599  -5.188  1.00  0.00    +0.211 HD
ENDBRANCH   4  31
TORSDOF 11
ENDMDL
MODEL 5
REMARK VINA RESULT:    -7.408     31.882     34.654
REMARK INTER + INTRA:         -11.844
REMARK INTER:                 -10.714
REMARK INTRA:                  -1.129
REMARK UNBOUND:                -0.971
REMARK SMILES O=S(=O)(O)OC[C@@H]1O[C@H](O[C@H]2[C@@H]3OC[C@H]2O[C@@H](O)[C@H]3O)[C@@H](O)[C@H](O)[C@@H]1O
REMARK SMILES IDX 9 1 21 2 23 3 25 4 7 5 8 6 10 7 11 8 14 9 15 10 13 11 16 12
REMARK SMILES IDX 12 13 17 14 19 15 18 16 20 18 22 20 24 22 6 24 5 25 2 26
REMARK SMILES IDX 1 27 3 28 4 29 26 31
REMARK H PARENT 18 17 20 19 22 21 24 23 4 30 26 32
ROOT
ATOM      1  C   UNL     1      -8.987 -11.766  -3.985  1.00  0.00    +0.282 C 
ATOM      2  C   UNL     1      -9.112 -13.030  -4.857  1.00  0.00    +0.202 C 
ATOM      3  C   UNL     1     -10.054 -12.720  -6.008  1.00  0.00    +0.179 C 
ATOM      4  C   UNL     1      -9.429 -11.642  -6.897  1.00  0.00    +0.177 C 
ATOM      5  C   UNL     1      -8.646 -10.577  -6.092  1.00  0.00    +0.180 C 
ATOM      6  O   UNL     1      -9.040 -10.537  -4.707  1.00  0.00    -0.341 OA
ENDROOT
BRANCH   1   7
ATOM      7  O   UNL     1      -7.807 -11.899  -3.188  1.00  0.00    -0.341 OA
BRANCH   7   8
ATOM      8  C   UNL     1      -8.043 -11.664  -1.803  1.00  0.00    +0.184 C 
ATOM      9  C   UNL     1      -8.352 -10.255   0.044  1.00  0.00    +0.195 C 
ATOM     10  C   UNL     1      -8.551 -10.269  -1.472  1.00  0.00    +0.179 C 
ATOM     11  O   UNL     1      -7.177 -11.068   0.297  1.00  0.00    -0.370 OA
ATOM     12  O   UNL     1      -7.771  -9.274  -2.159  1.00  0.00    -0.342 OA
ATOM     13  C   UNL     1      -6.758 -11.600  -0.986  1.00  0.00    +0.184 C 
ATOM     14  C   UNL     1      -6.379  -9.250  -1.863  1.00  0.00    +0.279 C 
ATOM     15  C   UNL     1      -5.754 -10.648  -1.652  1.00  0.00    +0.202 C 
BRANCH  14  16
ATOM     16  O   UNL     1      -6.170  -8.434  -0.713  1.00  0.00    -0.366 OA
ATOM     17  H   UNL     1      -6.834  -8.742  -0.071  1.00  0.00    +0.213 HD
ENDBRANCH  14  16
BRANCH  15  18
ATOM     18  O   UNL     1      -4.558 -10.558  -0.867  1.00  0.00    -0.385 OA
ATOM     19  H   UNL     1      -4.501  -9.608  -0.629  1.00  0.00    +0.211 HD
ENDBRANCH  15  18
ENDBRANCH   7   8
ENDBRANCH   1   7
BRANCH   2  20
ATOM     20  O   UNL     1      -9.635 -14.138  -4.104  1.00  0.00    -0.385 OA
ATOM     21  H   UNL     1      -9.152 -14.139  -3.255  1.00  0.00    +0.211 HD
ENDBRANCH   2  20
BRANCH   3  22
ATOM     22  O   UNL     1     -10.291 -13.901  -6.793  1.00  0.00    -0.387 OA
ATOM     23  H   UNL     1     -10.651 -13.569  -7.643  1.00  0.00    +0.211 HD
ENDBRANCH   3  22
BRANCH   5  24
ATOM     24  C   UNL     1      -7.116 -10.634  -6.251  1.00  0.00    +0.220 C 
BRANCH  24  25
ATOM     25  O   UNL     1      -6.700  -9.518  -7.035  1.00  0.00    -0.245 OA
BRANCH  25  26
ATOM     26  S   UNL     1      -6.266  -9.794  -8.574  1.00  0.00    +0.397 S 
ATOM     27  O   UNL     1      -5.827 -11.163  -8.726  1.00  0.00    -0.169 OA
ATOM     28  O   UNL     1      -5.470  -8.676  -9.029  1.00  0.00    -0.169 OA
BRANCH  26  29
ATOM     29  O   UNL     1      -7.668  -9.641  -9.350  1.00  0.00    -0.264 OA
ATOM     30  H   UNL     1      -7.937 -10.539  -9.631  1.00  0.00    +0.236 HD
ENDBRANCH  26  29
ENDBRANCH  25  26
ENDBRANCH  24  25
ENDBRANCH   5  24
BRANCH   4  31
ATOM     31  O   UNL     1      -8.599 -12.268  -7.882  1.00  0.00    -0.387 OA
ATOM     32  H   UNL     1      -7.899 -12.726  -7.366  1.00  0.00    +0.211 HD
ENDBRANCH   4  31
TORSDOF 11
ENDMDL
MODEL 6
REMARK VINA RESULT:    -7.333     39.655     43.241
REMARK INTER + INTRA:         -11.734
REMARK INTER:                 -10.610
REMARK INTRA:                  -1.124
REMARK UNBOUND:                -0.971
REMARK SMILES O=S(=O)(O)OC[C@@H]1O[C@H](O[C@H]2[C@@H]3OC[C@H]2O[C@@H](O)[C@H]3O)[C@@H](O)[C@H](O)[C@@H]1O
REMARK SMILES IDX 9 1 21 2 23 3 25 4 7 5 8 6 10 7 11 8 14 9 15 10 13 11 16 12
REMARK SMILES IDX 12 13 17 14 19 15 18 16 20 18 22 20 24 22 6 24 5 25 2 26
REMARK SMILES IDX 1 27 3 28 4 29 26 31
REMARK H PARENT 18 17 20 19 22 21 24 23 4 30 26 32
ROOT
ATOM      1  C   UNL     1      -9.128   8.302 -20.412  1.00  0.00    +0.282 C 
ATOM      2  C   UNL     1      -7.844   8.911 -21.008  1.00  0.00    +0.202 C 
ATOM      3  C   UNL     1      -7.630  10.277 -20.378  1.00  0.00    +0.179 C 
ATOM      4  C   UNL     1      -7.372  10.107 -18.878  1.00  0.00    +0.177 C 
ATOM      5  C   UNL     1      -8.212   8.970 -18.248  1.00  0.00    +0.180 C 
ATOM      6  O   UNL     1      -9.363   8.631 -19.045  1.00  0.00    -0.341 OA
ENDROOT
BRANCH   1   7
ATOM      7  O   UNL     1      -9.096   6.892 -20.654  1.00  0.00    -0.341 OA
BRANCH   7   8
ATOM      8  C   UNL     1     -10.262   6.223 -20.186  1.00  0.00    +0.184 C 
ATOM      9  C   UNL     1     -11.345   4.493 -19.033  1.00  0.00    +0.195 C 
ATOM     10  C   UNL     1     -10.023   5.261 -19.031  1.00  0.00    +0.179 C 
ATOM     11  O   UNL     1     -11.769   4.436 -20.420  1.00  0.00    -0.370 OA
ATOM     12  O   UNL     1      -8.880   4.430 -19.299  1.00  0.00    -0.342 OA
ATOM     13  C   UNL     1     -10.797   5.199 -21.181  1.00  0.00    +0.184 C 
ATOM     14  C   UNL     1      -8.953   3.613 -20.463  1.00  0.00    +0.279 C 
ATOM     15  C   UNL     1      -9.663   4.283 -21.660  1.00  0.00    +0.202 C 
BRANCH  14  16
ATOM     16  O   UNL     1      -9.601   2.390 -20.123  1.00  0.00    -0.366 OA
ATOM     17  H   UNL     1      -8.873   1.771 -19.936  1.00  0.00    +0.213 HD
ENDBRANCH  14  16
BRANCH  15  18
ATOM     18  O   UNL     1     -10.169   3.298 -22.570  1.00  0.00    -0.385 OA
ATOM     19  H   UNL     1     -11.113   3.205 -22.316  1.00  0.00    +0.211 HD
ENDBRANCH  15  18
ENDBRANCH   7   8
ENDBRANCH   1   7
BRANCH   2  20
ATOM     20  O   UNL     1      -7.947   9.060 -22.435  1.00  0.00    -0.385 OA
ATOM     21  H   UNL     1      -8.168   9.999 -22.593  1.00  0.00    +0.211 HD
ENDBRANCH   2  20
BRANCH   3  22
ATOM     22  O   UNL     1      -6.503  10.936 -20.980  1.00  0.00    -0.387 OA
ATOM     23  H   UNL     1      -6.665  10.877 -21.945  1.00  0.00    +0.211 HD
ENDBRANCH   3  22
BRANCH   5  24
ATOM     24  C   UNL     1      -7.412   7.720 -17.836  1.00  0.00    +0.220 C 
BRANCH  24  25
ATOM     25  O   UNL     1      -6.828   7.958 -16.557  1.00  0.00    -0.245 OA
BRANCH  25  26
ATOM     26  S   UNL     1      -6.898   6.764 -15.459  1.00  0.00    +0.397 S 
ATOM     27  O   UNL     1      -7.460   5.575 -16.057  1.00  0.00    -0.169 OA
ATOM     28  O   UNL     1      -7.400   7.315 -14.221  1.00  0.00    -0.169 OA
BRANCH  26  29
ATOM     29  O   UNL     1      -5.339   6.479 -15.177  1.00  0.00    -0.264 OA
ATOM     30  H   UNL     1      -5.088   7.012 -14.395  1.00  0.00    +0.236 HD
ENDBRANCH  26  29
ENDBRANCH  25  26
ENDBRANCH  24  25
ENDBRANCH   5  24
BRANCH   4  31
ATOM     31  O   UNL     1      -5.971   9.904 -18.663  1.00  0.00    -0.387 OA
ATOM     32  H   UNL     1      -5.922   9.263 -17.919  1.00  0.00    +0.211 HD
ENDBRANCH   4  31
TORSDOF 11
ENDMDL
MODEL 7
REMARK VINA RESULT:    -7.180      2.706      5.354
REMARK INTER + INTRA:         -11.509
REMARK INTER:                  -9.905
REMARK INTRA:                  -1.603
REMARK UNBOUND:                -0.971
REMARK SMILES O=S(=O)(O)OC[C@@H]1O[C@H](O[C@H]2[C@@H]3OC[C@H]2O[C@@H](O)[C@H]3O)[C@@H](O)[C@H](O)[C@@H]1O
REMARK SMILES IDX 9 1 21 2 23 3 25 4 7 5 8 6 10 7 11 8 14 9 15 10 13 11 16 12
REMARK SMILES IDX 12 13 17 14 19 15 18 16 20 18 22 20 24 22 6 24 5 25 2 26
REMARK SMILES IDX 1 27 3 28 4 29 26 31
REMARK H PARENT 18 17 20 19 22 21 24 23 4 30 26 32
ROOT
ATOM      1  C   UNL     1      11.178   7.065  18.137  1.00  0.00    +0.282 C 
ATOM      2  C   UNL     1       9.989   7.887  17.605  1.00  0.00    +0.202 C 
ATOM      3  C   UNL     1       9.336   7.102  16.480  1.00  0.00    +0.179 C 
ATOM      4  C   UNL     1       8.748   5.805  17.044  1.00  0.00    +0.177 C 
ATOM      5  C   UNL     1       9.622   5.181  18.158  1.00  0.00    +0.180 C 
ATOM      6  O   UNL     1      10.983   5.652  18.116  1.00  0.00    -0.341 OA
ENDROOT
BRANCH   1   7
ATOM      7  O   UNL     1      11.511   7.567  19.435  1.00  0.00    -0.341 OA
BRANCH   7   8
ATOM      8  C   UNL     1      12.849   8.045  19.519  1.00  0.00    +0.184 C 
ATOM      9  C   UNL     1      14.724   8.780  20.720  1.00  0.00    +0.195 C 
ATOM     10  C   UNL     1      13.500   7.877  20.884  1.00  0.00    +0.179 C 
ATOM     11  O   UNL     1      14.305   9.859  19.845  1.00  0.00    -0.370 OA
ATOM     12  O   UNL     1      12.606   8.312  21.924  1.00  0.00    -0.342 OA
ATOM     13  C   UNL     1      12.941   9.565  19.448  1.00  0.00    +0.184 C 
ATOM     14  C   UNL     1      12.189   9.672  21.868  1.00  0.00    +0.279 C 
ATOM     15  C   UNL     1      11.953  10.202  20.435  1.00  0.00    +0.202 C 
BRANCH  14  16
ATOM     16  O   UNL     1      13.155  10.475  22.541  1.00  0.00    -0.366 OA
ATOM     17  H   UNL     1      13.962   9.930  22.550  1.00  0.00    +0.213 HD
ENDBRANCH  14  16
BRANCH  15  18
ATOM     18  O   UNL     1      12.062  11.631  20.396  1.00  0.00    -0.385 OA
ATOM     19  H   UNL     1      13.027  11.793  20.329  1.00  0.00    +0.211 HD
ENDBRANCH  15  18
ENDBRANCH   7   8
ENDBRANCH   1   7
BRANCH   2  20
ATOM     20  O   UNL     1      10.416   9.165  17.102  1.00  0.00    -0.385 OA
ATOM     21  H   UNL     1       9.965   9.836  17.651  1.00  0.00    +0.211 HD
ENDBRANCH   2  20
BRANCH   3  22
ATOM     22  O   UNL     1       8.285   7.873  15.874  1.00  0.00    -0.387 OA
ATOM     23  H   UNL     1       7.802   7.236  15.306  1.00  0.00    +0.211 HD
ENDBRANCH   3  22
BRANCH   5  24
ATOM     24  C   UNL     1       9.030   5.267  19.577  1.00  0.00    +0.220 C 
BRANCH  24  25
ATOM     25  O   UNL     1       9.395   4.088  20.291  1.00  0.00    -0.245 OA
BRANCH  25  26
ATOM     26  S   UNL     1      10.635   4.188  21.333  1.00  0.00    +0.397 S 
ATOM     27  O   UNL     1      11.828   3.634  20.735  1.00  0.00    -0.169 OA
ATOM     28  O   UNL     1      10.166   3.779  22.638  1.00  0.00    -0.169 OA
BRANCH  26  29
ATOM     29  O   UNL     1      10.843   5.780  21.453  1.00  0.00    -0.264 OA
ATOM     30  H   UNL     1      11.292   5.945  22.307  1.00  0.00    +0.236 HD
ENDBRANCH  26  29
ENDBRANCH  25  26
ENDBRANCH  24  25
ENDBRANCH   5  24
BRANCH   4  31
ATOM     31  O   UNL     1       7.415   6.054  17.503  1.00  0.00    -0.387 OA
ATOM     32  H   UNL     1       7.116   6.840  16.992  1.00  0.00    +0.211 HD
ENDBRANCH   4  31
TORSDOF 11
ENDMDL
MODEL 8
REMARK VINA RESULT:    -7.037     27.248     30.200
REMARK INTER + INTRA:         -11.300
REMARK INTER:                 -10.050
REMARK INTRA:                  -1.250
REMARK UNBOUND:                -0.971
REMARK SMILES O=S(=O)(O)OC[C@@H]1O[C@H](O[C@H]2[C@@H]3OC[C@H]2O[C@@H](O)[C@H]3O)[C@@H](O)[C@H](O)[C@@H]1O
REMARK SMILES IDX 9 1 21 2 23 3 25 4 7 5 8 6 10 7 11 8 14 9 15 10 13 11 16 12
REMARK SMILES IDX 12 13 17 14 19 15 18 16 20 18 22 20 24 22 6 24 5 25 2 26
REMARK SMILES IDX 1 27 3 28 4 29 26 31
REMARK H PARENT 18 17 20 19 22 21 24 23 4 30 26 32
ROOT
ATOM      1  C   UNL     1      -3.510   1.590  -7.694  1.00  0.00    +0.282 C 
ATOM      2  C   UNL     1      -3.127   0.445  -6.737  1.00  0.00    +0.202 C 
ATOM      3  C   UNL     1      -3.123  -0.852  -7.528  1.00  0.00    +0.179 C 
ATOM      4  C   UNL     1      -2.024  -0.792  -8.592  1.00  0.00    +0.177 C 
ATOM      5  C   UNL     1      -1.863   0.616  -9.213  1.00  0.00    +0.180 C 
ATOM      6  O   UNL     1      -3.034   1.433  -9.030  1.00  0.00    -0.341 OA
ENDROOT
BRANCH   1   7
ATOM      7  O   UNL     1      -3.098   2.820  -7.091  1.00  0.00    -0.341 OA
BRANCH   7   8
ATOM      8  C   UNL     1      -4.192   3.622  -6.661  1.00  0.00    +0.184 C 
ATOM      9  C   UNL     1      -5.198   5.684  -6.182  1.00  0.00    +0.195 C 
ATOM     10  C   UNL     1      -4.113   5.083  -7.076  1.00  0.00    +0.179 C 
ATOM     11  O   UNL     1      -5.182   4.903  -4.959  1.00  0.00    -0.370 OA
ATOM     12  O   UNL     1      -2.800   5.610  -6.811  1.00  0.00    -0.342 OA
ATOM     13  C   UNL     1      -4.203   3.850  -5.154  1.00  0.00    +0.184 C 
ATOM     14  C   UNL     1      -2.370   5.577  -5.454  1.00  0.00    +0.279 C 
ATOM     15  C   UNL     1      -2.820   4.319  -4.680  1.00  0.00    +0.202 C 
BRANCH  14  16
ATOM     16  O   UNL     1      -2.833   6.755  -4.799  1.00  0.00    -0.366 OA
ATOM     17  H   UNL     1      -3.197   6.438  -3.954  1.00  0.00    +0.213 HD
ENDBRANCH  14  16
BRANCH  15  18
ATOM     18  O   UNL     1      -2.836   4.567  -3.268  1.00  0.00    -0.385 OA
ATOM     19  H   UNL     1      -1.901   4.446  -2.996  1.00  0.00    +0.211 HD
ENDBRANCH  15  18
ENDBRANCH   7   8
ENDBRANCH   1   7
BRANCH   2  20
ATOM     20  O   UNL     1      -4.063   0.333  -5.651  1.00  0.00    -0.385 OA
ATOM     21  H   UNL     1      -4.724  -0.331  -5.931  1.00  0.00    +0.211 HD
ENDBRANCH   2  20
BRANCH   3  22
ATOM     22  O   UNL     1      -2.878  -1.970  -6.657  1.00  0.00    -0.387 OA
ATOM     23  H   UNL     1      -3.522  -1.863  -5.926  1.00  0.00    +0.211 HD
ENDBRANCH   3  22
BRANCH   5  24
ATOM     24  C   UNL     1      -0.576   1.361  -8.816  1.00  0.00    +0.220 C 
BRANCH  24  25
ATOM     25  O   UNL     1       0.261   1.463  -9.966  1.00  0.00    -0.245 OA
BRANCH  25  26
ATOM     26  S   UNL     1       1.435   0.357 -10.148  1.00  0.00    +0.397 S 
ATOM     27  O   UNL     1       2.601   0.968 -10.745  1.00  0.00    -0.169 OA
ATOM     28  O   UNL     1       0.843  -0.851 -10.677  1.00  0.00    -0.169 OA
BRANCH  26  29
ATOM     29  O   UNL     1       1.799   0.001  -8.621  1.00  0.00    -0.264 OA
ATOM     30  H   UNL     1       2.598   0.516  -8.390  1.00  0.00    +0.236 HD
ENDBRANCH  26  29
ENDBRANCH  25  26
ENDBRANCH  24  25
ENDBRANCH   5  24
BRANCH   4  31
ATOM     31  O   UNL     1      -0.795  -1.258  -8.024  1.00  0.00    -0.387 OA
ATOM     32  H   UNL     1      -0.476  -1.949  -8.646  1.00  0.00    +0.211 HD
ENDBRANCH   4  31
TORSDOF 11
ENDMDL
MODEL 9
REMARK VINA RESULT:    -7.019     28.085     29.439
REMARK INTER + INTRA:         -11.273
REMARK INTER:                  -9.932
REMARK INTRA:                  -1.341
REMARK UNBOUND:                -0.971
REMARK SMILES O=S(=O)(O)OC[C@@H]1O[C@H](O[C@H]2[C@@H]3OC[C@H]2O[C@@H](O)[C@H]3O)[C@@H](O)[C@H](O)[C@@H]1O
REMARK SMILES IDX 9 1 21 2 23 3 25 4 7 5 8 6 10 7 11 8 14 9 15 10 13 11 16 12
REMARK SMILES IDX 12 13 17 14 19 15 18 16 20 18 22 20 24 22 6 24 5 25 2 26
REMARK SMILES IDX 1 27 3 28 4 29 26 31
REMARK H PARENT 18 17 20 19 22 21 24 23 4 30 26 32
ROOT
ATOM      1  C   UNL     1      -3.386   6.260  -5.491  1.00  0.00    +0.282 C 
ATOM      2  C   UNL     1      -4.431   7.298  -5.944  1.00  0.00    +0.202 C 
ATOM      3  C   UNL     1      -4.017   8.656  -5.402  1.00  0.00    +0.179 C 
ATOM      4  C   UNL     1      -2.689   9.072  -6.039  1.00  0.00    +0.177 C 
ATOM      5  C   UNL     1      -1.725   7.881  -6.255  1.00  0.00    +0.180 C 
ATOM      6  O   UNL     1      -2.050   6.754  -5.419  1.00  0.00    -0.341 OA
ENDROOT
BRANCH   1   7
ATOM      7  O   UNL     1      -3.517   5.112  -6.333  1.00  0.00    -0.341 OA
BRANCH   7   8
ATOM      8  C   UNL     1      -2.427   4.204  -6.207  1.00  0.00    +0.184 C 
ATOM      9  C   UNL     1      -1.237   2.283  -6.830  1.00  0.00    +0.195 C 
ATOM     10  C   UNL     1      -2.189   3.323  -7.424  1.00  0.00    +0.179 C 
ATOM     11  O   UNL     1      -1.633   2.130  -5.443  1.00  0.00    -0.370 OA
ATOM     12  O   UNL     1      -3.430   2.761  -7.887  1.00  0.00    -0.342 OA
ATOM     13  C   UNL     1      -2.701   3.085  -5.209  1.00  0.00    +0.184 C 
ATOM     14  C   UNL     1      -4.137   1.944  -6.961  1.00  0.00    +0.279 C 
ATOM     15  C   UNL     1      -4.062   2.438  -5.499  1.00  0.00    +0.202 C 
BRANCH  14  16
ATOM     16  O   UNL     1      -3.646   0.610  -7.059  1.00  0.00    -0.366 OA
ATOM     17  H   UNL     1      -3.571   0.308  -6.136  1.00  0.00    +0.213 HD
ENDBRANCH  14  16
BRANCH  15  18
ATOM     18  O   UNL     1      -4.307   1.362  -4.584  1.00  0.00    -0.385 OA
ATOM     19  H   UNL     1      -4.315   0.564  -5.154  1.00  0.00    +0.211 HD
ENDBRANCH  15  18
ENDBRANCH   7   8
ENDBRANCH   1   7
BRANCH   2  20
ATOM     20  O   UNL     1      -5.743   6.973  -5.453  1.00  0.00    -0.385 OA
ATOM     21  H   UNL     1      -5.810   5.999  -5.485  1.00  0.00    +0.211 HD
ENDBRANCH   2  20
BRANCH   3  22
ATOM     22  O   UNL     1      -5.017   9.643  -5.705  1.00  0.00    -0.387 OA
ATOM     23  H   UNL     1      -4.629  10.179  -6.428  1.00  0.00    +0.211 HD
ENDBRANCH   3  22
BRANCH   5  24
ATOM     24  C   UNL     1      -1.519   7.465  -7.723  1.00  0.00    +0.220 C 
BRANCH  24  25
ATOM     25  O   UNL     1      -0.202   7.842  -8.120  1.00  0.00    -0.245 OA
BRANCH  25  26
ATOM     26  S   UNL     1      -0.042   9.159  -9.055  1.00  0.00    +0.397 S 
ATOM     27  O   UNL     1       0.977   8.933 -10.056  1.00  0.00    -0.169 OA
ATOM     28  O   UNL     1      -0.036  10.325  -8.201  1.00  0.00    -0.169 OA
BRANCH  26  29
ATOM     29  O   UNL     1      -1.464   9.209  -9.808  1.00  0.00    -0.264 OA
ATOM     30  H   UNL     1      -1.344   9.762 -10.606  1.00  0.00    +0.236 HD
ENDBRANCH  26  29
ENDBRANCH  25  26
ENDBRANCH  24  25
ENDBRANCH   5  24
BRANCH   4  31
ATOM     31  O   UNL     1      -2.953   9.760  -7.267  1.00  0.00    -0.387 OA
ATOM     32  H   UNL     1      -2.237  10.432  -7.337  1.00  0.00    +0.211 HD
ENDBRANCH   4  31
TORSDOF 11
ENDMDL
