MODEL 1
REMARK VINA RESULT:    -9.664      0.000      0.000
REMARK INTER + INTRA:         -23.383
REMARK INTER:                 -20.964
REMARK INTRA:                  -2.419
REMARK UNBOUND:                -2.419
REMARK SMILES OC[C@@H]1O[C@H](O[C@H]2[C@@H]3OC[C@H]2O[C@@H](O[C@@H]2[C@H](O)[C@@H](O[C@@H]4[C@@H]5OC[C@H]4O[C@H](O[C@@H]4[C@@H](O)[C@H](O)O[C@@H](CO)[C@H]4O)[C@@H]5O)O[C@H](CO)[C@H]2O)[C@H]3O)[C@@H](O)[C@H](O[C@@H]2O[C@@H]3CO[C@H]([C@H]2O)[C@@H]3O)[C@H]1O
REMARK SMILES IDX 15 1 45 2 42 3 41 4 18 5 16 6 14 7 13 8 7 9 11 10 8 11 10 12
REMARK SMILES IDX 12 13 9 14 47 15 6 16 5 17 51 18 63 19 49 20 3 21 4 22 52 23
REMARK SMILES IDX 53 24 56 25 55 26 57 27 61 28 54 29 58 30 59 31 62 32 60 34
REMARK SMILES IDX 64 36 50 38 2 40 1 41 48 43 46 45 17 47 43 49 44 50 19 52
REMARK SMILES IDX 20 53 24 54 21 55 23 56 25 57 22 58 39 59 26 60 40 61 27 63
REMARK SMILES IDX 28 64 37 65 29 66 34 67 31 68 33 69 38 70 30 72 35 74 36 75
REMARK SMILES IDX 32 77
REMARK H PARENT 62 33 60 35 64 37 50 39 1 42 48 44 46 46 17 48 44 51 40 62
REMARK H PARENT 38 71 30 73 36 76 32 78
ROOT
ATOM      1  C   UNL     1      -1.393   7.745  -6.086  1.00  0.00    +0.186 C 
ATOM      2  C   UNL     1      -2.449   8.370  -5.150  1.00  0.00    +0.177 C 
ATOM      3  C   UNL     1      -3.819   7.665  -5.257  1.00  0.00    +0.178 C 
ATOM      4  O   UNL     1      -3.954   6.957  -6.490  1.00  0.00    -0.341 OA
ATOM      5  C   UNL     1      -3.028   5.874  -6.605  1.00  0.00    +0.282 C 
ATOM      6  C   UNL     1      -1.602   6.225  -6.096  1.00  0.00    +0.202 C 
ENDROOT
BRANCH   1   7
ATOM      7  O   UNL     1      -1.430   8.177  -7.468  1.00  0.00    -0.341 OA
BRANCH   7   8
ATOM      8  C   UNL     1      -0.195   7.989  -8.172  1.00  0.00    +0.282 C 
ATOM      9  C   UNL     1       1.947   9.989  -8.263  1.00  0.00    +0.184 C 
ATOM     10  C   UNL     1       1.365   9.421  -6.975  1.00  0.00    +0.179 C 
ATOM     11  C   UNL     1       0.614  10.283  -8.948  1.00  0.00    +0.184 C 
ATOM     12  C   UNL     1       0.279  10.450  -6.661  1.00  0.00    +0.195 C 
ATOM     13  O   UNL     1       0.884   8.083  -7.229  1.00  0.00    -0.341 OA
ATOM     14  O   UNL     1      -0.207  10.922  -7.940  1.00  0.00    -0.370 OA
ATOM     15  C   UNL     1      -0.066   8.972  -9.369  1.00  0.00    +0.202 C 
BRANCH   9  16
ATOM     16  O   UNL     1       2.729   9.077  -9.024  1.00  0.00    -0.341 OA
BRANCH  16  17
ATOM     17  C   UNL     1       4.029   8.789  -8.476  1.00  0.00    +0.282 C 
ATOM     18  C   UNL     1       6.469   8.651  -9.282  1.00  0.00    +0.186 C 
ATOM     19  C   UNL     1       6.484   7.432  -8.348  1.00  0.00    +0.177 C 
ATOM     20  C   UNL     1       5.046   9.152  -9.579  1.00  0.00    +0.202 C 
ATOM     21  C   UNL     1       5.182   6.632  -8.398  1.00  0.00    +0.178 C 
ATOM     22  O   UNL     1       4.047   7.431  -8.055  1.00  0.00    -0.341 OA
BRANCH  18  23
ATOM     23  O   UNL     1       7.120   8.257 -10.510  1.00  0.00    -0.341 OA
BRANCH  23  24
ATOM     24  C   UNL     1       8.205   9.112 -10.893  1.00  0.00    +0.282 C 
ATOM     25  C   UNL     1       6.301   9.700 -13.066  1.00  0.00    +0.195 C 
ATOM     26  C   UNL     1       7.300  10.709 -12.503  1.00  0.00    +0.178 C 
ATOM     27  O   UNL     1       7.091   8.606 -13.589  1.00  0.00    -0.370 OA
ATOM     28  C   UNL     1       8.469  10.502 -13.447  1.00  0.00    +0.177 C 
ATOM     29  O   UNL     1       7.711  10.439 -11.150  1.00  0.00    -0.341 OA
ATOM     30  C   UNL     1       8.477   8.977 -13.424  1.00  0.00    +0.183 C 
ATOM     31  C   UNL     1       8.995   8.472 -12.070  1.00  0.00    +0.202 C 
BRANCH  28  32
ATOM     32  O   UNL     1       9.681  11.091 -12.996  1.00  0.00    -0.387 OA
ATOM     33  H   UNL     1       9.485  11.560 -12.163  1.00  0.00    +0.211 HD
ENDBRANCH  28  32
BRANCH  31  34
ATOM     34  O   UNL     1      10.400   8.757 -11.946  1.00  0.00    -0.385 OA
ATOM     35  H   UNL     1      10.876   7.950 -12.244  1.00  0.00    +0.211 HD
ENDBRANCH  31  34
ENDBRANCH  23  24
ENDBRANCH  18  23
BRANCH  19  36
ATOM     36  O   UNL     1       6.670   7.920  -7.005  1.00  0.00    -0.387 OA
ATOM     37  H   UNL     1       7.191   7.258  -6.515  1.00  0.00    +0.211 HD
ENDBRANCH  19  36
BRANCH  20  38
ATOM     38  O   UNL     1       5.071  10.578  -9.788  1.00  0.00    -0.385 OA
ATOM     39  H   UNL     1       6.014  10.840  -9.760  1.00  0.00    +0.211 HD
ENDBRANCH  20  38
BRANCH  21  40
ATOM     40  C   UNL     1       4.922   5.893  -9.718  1.00  0.00    +0.191 C 
BRANCH  40  41
ATOM     41  O   UNL     1       3.526   5.577  -9.817  1.00  0.00    -0.394 OA
ATOM     42  H   UNL     1       3.275   5.811 -10.740  1.00  0.00    +0.210 HD
ENDBRANCH  40  41
ENDBRANCH  21  40
ENDBRANCH  16  17
ENDBRANCH   9  16
BRANCH  15  43
ATOM     43  O   UNL     1      -1.344   9.241  -9.959  1.00  0.00    -0.385 OA
ATOM     44  H   UNL     1      -1.590  10.127  -9.624  1.00  0.00    +0.211 HD
ENDBRANCH  15  43
ENDBRANCH   7   8
ENDBRANCH   1   7
BRANCH   2  45
ATOM     45  O   UNL     1      -1.987   8.279  -3.792  1.00  0.00    -0.387 OA
ATOM     46  H   UNL     1      -1.013   8.183  -3.846  1.00  0.00    +0.211 HD
ENDBRANCH   2  45
BRANCH   6  47
ATOM     47  O   UNL     1      -0.607   5.603  -6.931  1.00  0.00    -0.385 OA
ATOM     48  H   UNL     1       0.211   5.586  -6.398  1.00  0.00    +0.211 HD
ENDBRANCH   6  47
BRANCH   3  49
ATOM     49  C   UNL     1      -4.965   8.681  -5.152  1.00  0.00    +0.191 C 
BRANCH  49  50
ATOM     50  O   UNL     1      -4.771   9.778  -6.041  1.00  0.00    -0.394 OA
ATOM     51  H   UNL     1      -3.820  10.024  -5.976  1.00  0.00    +0.210 HD
ENDBRANCH  49  50
ENDBRANCH   3  49
BRANCH   5  52
ATOM     52  O   UNL     1      -3.496   4.725  -5.890  1.00  0.00    -0.341 OA
BRANCH  52  53
ATOM     53  C   UNL     1      -2.969   3.490  -6.382  1.00  0.00    +0.184 C 
ATOM     54  C   UNL     1      -3.626   2.345  -5.631  1.00  0.00    +0.179 C 
ATOM     55  C   UNL     1      -3.474   3.115  -7.780  1.00  0.00    +0.184 C 
ATOM     56  C   UNL     1      -5.038   2.377  -6.222  1.00  0.00    +0.195 C 
ATOM     57  O   UNL     1      -2.926   1.111  -5.911  1.00  0.00    -0.341 OA
ATOM     58  O   UNL     1      -4.871   2.747  -7.613  1.00  0.00    -0.370 OA
ATOM     59  C   UNL     1      -2.716   1.872  -8.262  1.00  0.00    +0.202 C 
ATOM     60  C   UNL     1      -2.979   0.699  -7.282  1.00  0.00    +0.282 C 
BRANCH  59  61
ATOM     61  O   UNL     1      -1.312   2.165  -8.354  1.00  0.00    -0.385 OA
ATOM     62  H   UNL     1      -1.020   2.341  -7.438  1.00  0.00    +0.211 HD
ENDBRANCH  59  61
BRANCH  60  63
ATOM     63  O   UNL     1      -1.949  -0.276  -7.487  1.00  0.00    -0.341 OA
BRANCH  63  64
ATOM     64  C   UNL     1      -2.304  -1.329  -8.398  1.00  0.00    +0.186 C 
ATOM     65  C   UNL     1      -1.946  -0.844  -9.820  1.00  0.00    +0.177 C 
ATOM     66  C   UNL     1      -1.597  -2.675  -8.124  1.00  0.00    +0.202 C 
ATOM     67  C   UNL     1      -0.414  -0.812 -10.005  1.00  0.00    +0.178 C 
ATOM     68  C   UNL     1      -0.079  -2.558  -8.401  1.00  0.00    +0.279 C 
ATOM     69  O   UNL     1       0.157  -2.100  -9.730  1.00  0.00    -0.342 OA
BRANCH  65  70
ATOM     70  O   UNL     1      -2.565  -1.683 -10.808  1.00  0.00    -0.387 OA
ATOM     71  H   UNL     1      -3.218  -1.123 -11.287  1.00  0.00    +0.211 HD
ENDBRANCH  65  70
BRANCH  66  72
ATOM     72  O   UNL     1      -2.194  -3.671  -8.980  1.00  0.00    -0.385 OA
ATOM     73  H   UNL     1      -1.513  -3.954  -9.620  1.00  0.00    +0.211 HD
ENDBRANCH  66  72
BRANCH  67  74
ATOM     74  C   UNL     1      -0.002  -0.391 -11.428  1.00  0.00    +0.191 C 
BRANCH  74  75
ATOM     75  O   UNL     1      -0.163  -1.422 -12.401  1.00  0.00    -0.394 OA
ATOM     76  H   UNL     1      -0.332  -2.252 -11.907  1.00  0.00    +0.210 HD
ENDBRANCH  74  75
ENDBRANCH  67  74
BRANCH  68  77
ATOM     77  O   UNL     1       0.619  -1.768  -7.454  1.00  0.00    -0.366 OA
ATOM     78  H   UNL     1      -0.033  -1.333  -6.873  1.00  0.00    +0.213 HD
ENDBRANCH  68  77
ENDBRANCH  63  64
ENDBRANCH  60  63
ENDBRANCH  52  53
ENDBRANCH   5  52
TORSDOF 27
ENDMDL
MODEL 2
REMARK VINA RESULT:    -9.386      4.138      6.721
REMARK INTER + INTRA:         -22.780
REMARK INTER:                 -20.025
REMARK INTRA:                  -2.756
REMARK UNBOUND:                -2.419
REMARK SMILES OC[C@@H]1O[C@H](O[C@H]2[C@@H]3OC[C@H]2O[C@@H](O[C@@H]2[C@H](O)[C@@H](O[C@@H]4[C@@H]5OC[C@H]4O[C@H](O[C@@H]4[C@@H](O)[C@H](O)O[C@@H](CO)[C@H]4O)[C@@H]5O)O[C@H](CO)[C@H]2O)[C@H]3O)[C@@H](O)[C@H](O[C@@H]2O[C@@H]3CO[C@H]([C@H]2O)[C@@H]3O)[C@H]1O
REMARK SMILES IDX 15 1 45 2 42 3 41 4 18 5 16 6 14 7 13 8 7 9 11 10 8 11 10 12
REMARK SMILES IDX 12 13 9 14 47 15 6 16 5 17 51 18 63 19 49 20 3 21 4 22 52 23
REMARK SMILES IDX 53 24 56 25 55 26 57 27 61 28 54 29 58 30 59 31 62 32 60 34
REMARK SMILES IDX 64 36 50 38 2 40 1 41 48 43 46 45 17 47 43 49 44 50 19 52
REMARK SMILES IDX 20 53 24 54 21 55 23 56 25 57 22 58 39 59 26 60 40 61 27 63
REMARK SMILES IDX 28 64 37 65 29 66 34 67 31 68 33 69 38 70 30 72 35 74 36 75
REMARK SMILES IDX 32 77
REMARK H PARENT 62 33 60 35 64 37 50 39 1 42 48 44 46 46 17 48 44 51 40 62
REMARK H PARENT 38 71 30 73 36 76 32 78
ROOT
ATOM      1  C   UNL     1      -1.219   8.400  -6.221  1.00  0.00    +0.186 C 
ATOM      2  C   UNL     1      -2.458   8.797  -5.392  1.00  0.00    +0.177 C 
ATOM      3  C   UNL     1      -3.557   7.712  -5.423  1.00  0.00    +0.178 C 
ATOM      4  O   UNL     1      -3.415   6.848  -6.551  1.00  0.00    -0.341 OA
ATOM      5  C   UNL     1      -2.210   6.081  -6.508  1.00  0.00    +0.282 C 
ATOM      6  C   UNL     1      -0.976   6.897  -6.031  1.00  0.00    +0.202 C 
ENDROOT
BRANCH   1   7
ATOM      7  O   UNL     1      -1.306   8.628  -7.648  1.00  0.00    -0.341 OA
BRANCH   7   8
ATOM      8  C   UNL     1      -1.244  10.010  -8.025  1.00  0.00    +0.282 C 
ATOM      9  C   UNL     1       0.368  11.017 -10.257  1.00  0.00    +0.184 C 
ATOM     10  C   UNL     1      -0.689   9.929 -10.392  1.00  0.00    +0.179 C 
ATOM     11  C   UNL     1       1.065  10.439  -9.028  1.00  0.00    +0.184 C 
ATOM     12  C   UNL     1       0.158   8.668 -10.215  1.00  0.00    +0.195 C 
ATOM     13  O   UNL     1      -1.701  10.131  -9.381  1.00  0.00    -0.341 OA
ATOM     14  O   UNL     1       1.218   9.024  -9.298  1.00  0.00    -0.370 OA
ATOM     15  C   UNL     1       0.172  10.603  -7.788  1.00  0.00    +0.202 C 
BRANCH   9  16
ATOM     16  O   UNL     1      -0.138  12.320 -10.000  1.00  0.00    -0.341 OA
BRANCH  16  17
ATOM     17  C   UNL     1       0.576  13.387 -10.652  1.00  0.00    +0.282 C 
ATOM     18  C   UNL     1       1.034  15.894 -10.297  1.00  0.00    +0.186 C 
ATOM     19  C   UNL     1       0.829  15.929 -11.819  1.00  0.00    +0.177 C 
ATOM     20  C   UNL     1       0.562  14.574  -9.666  1.00  0.00    +0.202 C 
ATOM     21  C   UNL     1      -0.285  14.992 -12.287  1.00  0.00    +0.178 C 
ATOM     22  O   UNL     1      -0.039  13.635 -11.911  1.00  0.00    -0.341 OA
BRANCH  18  23
ATOM     23  O   UNL     1       0.290  17.001  -9.740  1.00  0.00    -0.341 OA
BRANCH  23  24
ATOM     24  C   UNL     1       1.113  18.007  -9.135  1.00  0.00    +0.282 C 
ATOM     25  C   UNL     1      -0.529  17.227  -6.814  1.00  0.00    +0.195 C 
ATOM     26  C   UNL     1       0.917  17.709  -6.719  1.00  0.00    +0.178 C 
ATOM     27  O   UNL     1      -1.274  18.316  -7.411  1.00  0.00    -0.370 OA
ATOM     28  C   UNL     1       0.704  19.194  -6.498  1.00  0.00    +0.177 C 
ATOM     29  O   UNL     1       1.687  17.499  -7.917  1.00  0.00    -0.341 OA
ATOM     30  C   UNL     1      -0.346  19.409  -7.583  1.00  0.00    +0.183 C 
ATOM     31  C   UNL     1       0.304  19.326  -8.972  1.00  0.00    +0.202 C 
BRANCH  28  32
ATOM     32  O   UNL     1       1.880  19.974  -6.672  1.00  0.00    -0.387 OA
ATOM     33  H   UNL     1       2.637  19.359  -6.692  1.00  0.00    +0.211 HD
ENDBRANCH  28  32
BRANCH  31  34
ATOM     34  O   UNL     1       1.156  20.467  -9.182  1.00  0.00    -0.385 OA
ATOM     35  H   UNL     1       1.898  20.161  -9.749  1.00  0.00    +0.211 HD
ENDBRANCH  31  34
ENDBRANCH  23  24
ENDBRANCH  18  23
BRANCH  19  36
ATOM     36  O   UNL     1       2.064  15.512 -12.430  1.00  0.00    -0.387 OA
ATOM     37  H   UNL     1       1.965  15.599 -13.396  1.00  0.00    +0.211 HD
ENDBRANCH  19  36
BRANCH  20  38
ATOM     38  O   UNL     1       1.372  14.276  -8.511  1.00  0.00    -0.385 OA
ATOM     39  H   UNL     1       1.267  15.035  -7.902  1.00  0.00    +0.211 HD
ENDBRANCH  20  38
BRANCH  21  40
ATOM     40  C   UNL     1      -1.703  15.403 -11.866  1.00  0.00    +0.191 C 
BRANCH  40  41
ATOM     41  O   UNL     1      -1.845  16.824 -12.003  1.00  0.00    -0.394 OA
ATOM     42  H   UNL     1      -2.178  17.133 -11.130  1.00  0.00    +0.210 HD
ENDBRANCH  40  41
ENDBRANCH  21  40
ENDBRANCH  16  17
ENDBRANCH   9  16
BRANCH  15  43
ATOM     43  O   UNL     1       0.798  10.009  -6.643  1.00  0.00    -0.385 OA
ATOM     44  H   UNL     1       1.714   9.821  -6.930  1.00  0.00    +0.211 HD
ENDBRANCH  15  43
ENDBRANCH   7   8
ENDBRANCH   1   7
BRANCH   2  45
ATOM     45  O   UNL     1      -2.063   9.015  -4.027  1.00  0.00    -0.387 OA
ATOM     46  H   UNL     1      -1.289   9.615  -4.066  1.00  0.00    +0.211 HD
ENDBRANCH   2  45
BRANCH   6  47
ATOM     47  O   UNL     1       0.199   6.498  -6.761  1.00  0.00    -0.385 OA
ATOM     48  H   UNL     1       0.637   7.328  -7.030  1.00  0.00    +0.211 HD
ENDBRANCH   6  47
BRANCH   3  49
ATOM     49  C   UNL     1      -4.953   8.349  -5.471  1.00  0.00    +0.191 C 
BRANCH  49  50
ATOM     50  O   UNL     1      -4.878   9.746  -5.745  1.00  0.00    -0.394 OA
ATOM     51  H   UNL     1      -5.245  10.204  -4.955  1.00  0.00    +0.210 HD
ENDBRANCH  49  50
ENDBRANCH   3  49
BRANCH   5  52
ATOM     52  O   UNL     1      -2.361   4.943  -5.652  1.00  0.00    -0.341 OA
BRANCH  52  53
ATOM     53  C   UNL     1      -1.923   3.718  -6.245  1.00  0.00    +0.184 C 
ATOM     54  C   UNL     1      -2.859   2.603  -5.812  1.00  0.00    +0.179 C 
ATOM     55  C   UNL     1      -2.202   3.624  -7.750  1.00  0.00    +0.184 C 
ATOM     56  C   UNL     1      -4.117   2.945  -6.615  1.00  0.00    +0.195 C 
ATOM     57  O   UNL     1      -2.293   1.322  -6.170  1.00  0.00    -0.341 OA
ATOM     58  O   UNL     1      -3.641   3.470  -7.879  1.00  0.00    -0.370 OA
ATOM     59  C   UNL     1      -1.542   2.353  -8.297  1.00  0.00    +0.202 C 
ATOM     60  C   UNL     1      -2.142   1.115  -7.580  1.00  0.00    +0.282 C 
BRANCH  59  61
ATOM     61  O   UNL     1      -0.119   2.423  -8.105  1.00  0.00    -0.385 OA
ATOM     62  H   UNL     1       0.261   2.524  -9.000  1.00  0.00    +0.211 HD
ENDBRANCH  59  61
BRANCH  60  63
ATOM     63  O   UNL     1      -1.233   0.023  -7.768  1.00  0.00    -0.341 OA
BRANCH  63  64
ATOM     64  C   UNL     1      -1.682  -0.963  -8.711  1.00  0.00    +0.186 C 
ATOM     65  C   UNL     1      -0.989  -0.657 -10.057  1.00  0.00    +0.177 C 
ATOM     66  C   UNL     1      -1.380  -2.422  -8.302  1.00  0.00    +0.202 C 
ATOM     67  C   UNL     1       0.513  -1.003  -9.977  1.00  0.00    +0.178 C 
ATOM     68  C   UNL     1       0.144  -2.687  -8.315  1.00  0.00    +0.279 C 
ATOM     69  O   UNL     1       0.699  -2.372  -9.590  1.00  0.00    -0.342 OA
BRANCH  65  70
ATOM     70  O   UNL     1      -1.624  -1.377 -11.125  1.00  0.00    -0.387 OA
ATOM     71  H   UNL     1      -1.116  -2.212 -11.246  1.00  0.00    +0.211 HD
ENDBRANCH  65  70
BRANCH  66  72
ATOM     72  O   UNL     1      -2.055  -3.293  -9.233  1.00  0.00    -0.385 OA
ATOM     73  H   UNL     1      -2.545  -3.957  -8.711  1.00  0.00    +0.211 HD
ENDBRANCH  66  72
BRANCH  67  74
ATOM     74  C   UNL     1       1.243  -0.771 -11.313  1.00  0.00    +0.191 C 
BRANCH  74  75
ATOM     75  O   UNL     1       2.564  -0.253 -11.163  1.00  0.00    -0.394 OA
ATOM     76  H   UNL     1       3.139  -0.767 -11.769  1.00  0.00    +0.210 HD
ENDBRANCH  74  75
ENDBRANCH  67  74
BRANCH  68  77
ATOM     77  O   UNL     1       0.850  -2.035  -7.274  1.00  0.00    -0.366 OA
ATOM     78  H   UNL     1       0.696  -2.522  -6.442  1.00  0.00    +0.213 HD
ENDBRANCH  68  77
ENDBRANCH  63  64
ENDBRANCH  60  63
ENDBRANCH  52  53
ENDBRANCH   5  52
TORSDOF 27
ENDMDL
MODEL 3
REMARK VINA RESULT:    -9.352     14.662     18.710
REMARK INTER + INTRA:         -22.705
REMARK INTER:                 -19.468
REMARK INTRA:                  -3.238
REMARK UNBOUND:                -2.419
REMARK SMILES OC[C@@H]1O[C@H](O[C@H]2[C@@H]3OC[C@H]2O[C@@H](O[C@@H]2[C@H](O)[C@@H](O[C@@H]4[C@@H]5OC[C@H]4O[C@H](O[C@@H]4[C@@H](O)[C@H](O)O[C@@H](CO)[C@H]4O)[C@@H]5O)O[C@H](CO)[C@H]2O)[C@H]3O)[C@@H](O)[C@H](O[C@@H]2O[C@@H]3CO[C@H]([C@H]2O)[C@@H]3O)[C@H]1O
REMARK SMILES IDX 15 1 45 2 42 3 41 4 18 5 16 6 14 7 13 8 7 9 11 10 8 11 10 12
REMARK SMILES IDX 12 13 9 14 47 15 6 16 5 17 51 18 63 19 49 20 3 21 4 22 52 23
REMARK SMILES IDX 53 24 56 25 55 26 57 27 61 28 54 29 58 30 59 31 62 32 60 34
REMARK SMILES IDX 64 36 50 38 2 40 1 41 48 43 46 45 17 47 43 49 44 50 19 52
REMARK SMILES IDX 20 53 24 54 21 55 23 56 25 57 22 58 39 59 26 60 40 61 27 63
REMARK SMILES IDX 28 64 37 65 29 66 34 67 31 68 33 69 38 70 30 72 35 74 36 75
REMARK SMILES IDX 32 77
REMARK H PARENT 62 33 60 35 64 37 50 39 1 42 48 44 46 46 17 48 44 51 40 62
REMARK H PARENT 38 71 30 73 36 76 32 78
ROOT
ATOM      1  C   UNL     1     -15.182  -1.128 -21.074  1.00  0.00    +0.186 C 
ATOM      2  C   UNL     1     -13.783  -1.779 -21.092  1.00  0.00    +0.177 C 
ATOM      3  C   UNL     1     -13.592  -2.793 -19.942  1.00  0.00    +0.178 C 
ATOM      4  O   UNL     1     -14.507  -2.554 -18.872  1.00  0.00    -0.341 OA
ATOM      5  C   UNL     1     -15.868  -2.761 -19.256  1.00  0.00    +0.282 C 
ATOM      6  C   UNL     1     -16.203  -2.197 -20.666  1.00  0.00    +0.202 C 
ENDROOT
BRANCH   1   7
ATOM      7  O   UNL     1     -15.357  -0.018 -20.160  1.00  0.00    -0.341 OA
BRANCH   7   8
ATOM      8  C   UNL     1     -14.507   1.104 -20.433  1.00  0.00    +0.282 C 
ATOM      9  C   UNL     1     -13.150   2.662 -18.354  1.00  0.00    +0.184 C 
ATOM     10  C   UNL     1     -13.003   1.156 -18.522  1.00  0.00    +0.179 C 
ATOM     11  C   UNL     1     -14.673   2.706 -18.452  1.00  0.00    +0.184 C 
ATOM     12  C   UNL     1     -14.087   0.644 -17.574  1.00  0.00    +0.195 C 
ATOM     13  O   UNL     1     -13.199   0.819 -19.914  1.00  0.00    -0.341 OA
ATOM     14  O   UNL     1     -15.147   1.627 -17.611  1.00  0.00    -0.370 OA
ATOM     15  C   UNL     1     -15.118   2.428 -19.896  1.00  0.00    +0.202 C 
BRANCH   9  16
ATOM     16  O   UNL     1     -12.544   3.445 -19.373  1.00  0.00    -0.341 OA
BRANCH  16  17
ATOM     17  C   UNL     1     -11.104   3.485 -19.332  1.00  0.00    +0.282 C 
ATOM     18  C   UNL     1      -9.234   5.239 -19.121  1.00  0.00    +0.186 C 
ATOM     19  C   UNL     1      -8.565   4.340 -20.171  1.00  0.00    +0.177 C 
ATOM     20  C   UNL     1     -10.729   4.931 -18.944  1.00  0.00    +0.202 C 
ATOM     21  C   UNL     1      -9.555   3.796 -21.201  1.00  0.00    +0.178 C 
ATOM     22  O   UNL     1     -10.607   3.045 -20.589  1.00  0.00    -0.341 OA
BRANCH  18  23
ATOM     23  O   UNL     1      -9.059   6.607 -19.556  1.00  0.00    -0.341 OA
BRANCH  23  24
ATOM     24  C   UNL     1      -7.698   7.055 -19.530  1.00  0.00    +0.282 C 
ATOM     25  C   UNL     1      -9.078   9.581 -18.892  1.00  0.00    +0.195 C 
ATOM     26  C   UNL     1      -7.692   9.205 -18.372  1.00  0.00    +0.178 C 
ATOM     27  O   UNL     1      -8.969   9.604 -20.335  1.00  0.00    -0.370 OA
ATOM     28  C   UNL     1      -6.813   9.836 -19.435  1.00  0.00    +0.177 C 
ATOM     29  O   UNL     1      -7.449   7.787 -18.317  1.00  0.00    -0.341 OA
ATOM     30  C   UNL     1      -7.585   9.341 -20.653  1.00  0.00    +0.183 C 
ATOM     31  C   UNL     1      -7.371   7.832 -20.838  1.00  0.00    +0.202 C 
BRANCH  28  32
ATOM     32  O   UNL     1      -5.461   9.400 -19.394  1.00  0.00    -0.387 OA
ATOM     33  H   UNL     1      -4.913  10.170 -19.151  1.00  0.00    +0.211 HD
ENDBRANCH  28  32
BRANCH  31  34
ATOM     34  O   UNL     1      -6.016   7.577 -21.248  1.00  0.00    -0.385 OA
ATOM     35  H   UNL     1      -5.604   7.043 -20.534  1.00  0.00    +0.211 HD
ENDBRANCH  31  34
ENDBRANCH  23  24
ENDBRANCH  18  23
BRANCH  19  36
ATOM     36  O   UNL     1      -7.973   3.229 -19.473  1.00  0.00    -0.387 OA
ATOM     37  H   UNL     1      -7.007   3.279 -19.594  1.00  0.00    +0.211 HD
ENDBRANCH  19  36
BRANCH  20  38
ATOM     38  O   UNL     1     -11.119   5.202 -17.583  1.00  0.00    -0.385 OA
ATOM     39  H   UNL     1     -11.418   6.134 -17.566  1.00  0.00    +0.211 HD
ENDBRANCH  20  38
BRANCH  21  40
ATOM     40  C   UNL     1     -10.147   4.843 -22.155  1.00  0.00    +0.191 C 
BRANCH  40  41
ATOM     41  O   UNL     1     -10.893   4.178 -23.185  1.00  0.00    -0.394 OA
ATOM     42  H   UNL     1     -10.432   4.410 -24.024  1.00  0.00    +0.210 HD
ENDBRANCH  40  41
ENDBRANCH  21  40
ENDBRANCH  16  17
ENDBRANCH   9  16
BRANCH  15  43
ATOM     43  O   UNL     1     -16.549   2.410 -19.981  1.00  0.00    -0.385 OA
ATOM     44  H   UNL     1     -16.828   3.291 -19.659  1.00  0.00    +0.211 HD
ENDBRANCH  15  43
ENDBRANCH   7   8
ENDBRANCH   1   7
BRANCH   2  45
ATOM     45  O   UNL     1     -13.597  -2.461 -22.344  1.00  0.00    -0.387 OA
ATOM     46  H   UNL     1     -12.978  -1.906 -22.862  1.00  0.00    +0.211 HD
ENDBRANCH   2  45
BRANCH   6  47
ATOM     47  O   UNL     1     -17.529  -1.633 -20.676  1.00  0.00    -0.385 OA
ATOM     48  H   UNL     1     -17.437  -0.738 -20.297  1.00  0.00    +0.211 HD
ENDBRANCH   6  47
BRANCH   3  49
ATOM     49  C   UNL     1     -12.164  -2.723 -19.385  1.00  0.00    +0.191 C 
BRANCH  49  50
ATOM     50  O   UNL     1     -12.136  -2.994 -17.986  1.00  0.00    -0.394 OA
ATOM     51  H   UNL     1     -12.718  -3.775 -17.843  1.00  0.00    +0.210 HD
ENDBRANCH  49  50
ENDBRANCH   3  49
BRANCH   5  52
ATOM     52  O   UNL     1     -16.199  -4.154 -19.234  1.00  0.00    -0.341 OA
BRANCH  52  53
ATOM     53  C   UNL     1     -15.566  -4.876 -18.173  1.00  0.00    +0.184 C 
ATOM     54  C   UNL     1     -16.616  -5.705 -17.453  1.00  0.00    +0.179 C 
ATOM     55  C   UNL     1     -14.698  -6.045 -18.652  1.00  0.00    +0.184 C 
ATOM     56  C   UNL     1     -16.896  -6.794 -18.492  1.00  0.00    +0.195 C 
ATOM     57  O   UNL     1     -16.066  -6.228 -16.223  1.00  0.00    -0.341 OA
ATOM     58  O   UNL     1     -15.623  -7.058 -19.133  1.00  0.00    -0.370 OA
ATOM     59  C   UNL     1     -13.948  -6.628 -17.448  1.00  0.00    +0.202 C 
ATOM     60  C   UNL     1     -14.974  -7.137 -16.403  1.00  0.00    +0.282 C 
BRANCH  59  61
ATOM     61  O   UNL     1     -13.085  -5.627 -16.882  1.00  0.00    -0.385 OA
ATOM     62  H   UNL     1     -12.196  -6.033 -16.854  1.00  0.00    +0.211 HD
ENDBRANCH  59  61
BRANCH  60  63
ATOM     63  O   UNL     1     -14.291  -7.256 -15.148  1.00  0.00    -0.341 OA
BRANCH  63  64
ATOM     64  C   UNL     1     -14.241  -8.594 -14.627  1.00  0.00    +0.186 C 
ATOM     65  C   UNL     1     -13.278  -8.579 -13.421  1.00  0.00    +0.177 C 
ATOM     66  C   UNL     1     -15.610  -9.157 -14.181  1.00  0.00    +0.202 C 
ATOM     67  C   UNL     1     -13.919  -7.835 -12.231  1.00  0.00    +0.178 C 
ATOM     68  C   UNL     1     -16.137  -8.389 -12.946  1.00  0.00    +0.279 C 
ATOM     69  O   UNL     1     -15.183  -8.422 -11.887  1.00  0.00    -0.342 OA
BRANCH  65  70
ATOM     70  O   UNL     1     -12.914  -9.919 -13.051  1.00  0.00    -0.387 OA
ATOM     71  H   UNL     1     -11.951 -10.012 -13.233  1.00  0.00    +0.211 HD
ENDBRANCH  65  70
BRANCH  66  72
ATOM     72  O   UNL     1     -15.434 -10.555 -13.873  1.00  0.00    -0.385 OA
ATOM     73  H   UNL     1     -15.128 -10.615 -12.948  1.00  0.00    +0.211 HD
ENDBRANCH  66  72
BRANCH  67  74
ATOM     74  C   UNL     1     -13.023  -7.841 -10.979  1.00  0.00    +0.191 C 
BRANCH  74  75
ATOM     75  O   UNL     1     -13.548  -7.079  -9.894  1.00  0.00    -0.394 OA
ATOM     76  H   UNL     1     -14.372  -7.527  -9.607  1.00  0.00    +0.210 HD
ENDBRANCH  74  75
ENDBRANCH  67  74
BRANCH  68  77
ATOM     77  O   UNL     1     -16.546  -7.061 -13.225  1.00  0.00    -0.366 OA
ATOM     78  H   UNL     1     -17.481  -7.078 -13.504  1.00  0.00    +0.213 HD
ENDBRANCH  68  77
ENDBRANCH  63  64
ENDBRANCH  60  63
ENDBRANCH  52  53
ENDBRANCH   5  52
TORSDOF 27
ENDMDL
MODEL 4
REMARK VINA RESULT:    -9.286      3.379      4.880
REMARK INTER + INTRA:         -22.562
REMARK INTER:                 -20.079
REMARK INTRA:                  -2.483
REMARK UNBOUND:                -2.419
REMARK SMILES OC[C@@H]1O[C@H](O[C@H]2[C@@H]3OC[C@H]2O[C@@H](O[C@@H]2[C@H](O)[C@@H](O[C@@H]4[C@@H]5OC[C@H]4O[C@H](O[C@@H]4[C@@H](O)[C@H](O)O[C@@H](CO)[C@H]4O)[C@@H]5O)O[C@H](CO)[C@H]2O)[C@H]3O)[C@@H](O)[C@H](O[C@@H]2O[C@@H]3CO[C@H]([C@H]2O)[C@@H]3O)[C@H]1O
REMARK SMILES IDX 15 1 45 2 42 3 41 4 18 5 16 6 14 7 13 8 7 9 11 10 8 11 10 12
REMARK SMILES IDX 12 13 9 14 47 15 6 16 5 17 51 18 63 19 49 20 3 21 4 22 52 23
REMARK SMILES IDX 53 24 56 25 55 26 57 27 61 28 54 29 58 30 59 31 62 32 60 34
REMARK SMILES IDX 64 36 50 38 2 40 1 41 48 43 46 45 17 47 43 49 44 50 19 52
REMARK SMILES IDX 20 53 24 54 21 55 23 56 25 57 22 58 39 59 26 60 40 61 27 63
REMARK SMILES IDX 28 64 37 65 29 66 34 67 31 68 33 69 38 70 30 72 35 74 36 75
REMARK SMILES IDX 32 77
REMARK H PARENT 62 33 60 35 64 37 50 39 1 42 48 44 46 46 17 48 44 51 40 62
REMARK H PARENT 38 71 30 73 36 76 32 78
ROOT
ATOM      1  C   UNL     1      -1.222   8.160  -6.315  1.00  0.00    +0.186 C 
ATOM      2  C   UNL     1      -2.414   8.625  -5.452  1.00  0.00    +0.177 C 
ATOM      3  C   UNL     1      -3.590   7.624  -5.487  1.00  0.00    +0.178 C 
ATOM      4  O   UNL     1      -3.532   6.781  -6.638  1.00  0.00    -0.341 OA
ATOM      5  C   UNL     1      -2.386   5.927  -6.637  1.00  0.00    +0.282 C 
ATOM      6  C   UNL     1      -1.087   6.639  -6.166  1.00  0.00    +0.202 C 
ENDROOT
BRANCH   1   7
ATOM      7  O   UNL     1      -1.319   8.429  -7.735  1.00  0.00    -0.341 OA
BRANCH   7   8
ATOM      8  C   UNL     1      -1.123   9.806  -8.084  1.00  0.00    +0.282 C 
ATOM      9  C   UNL     1       0.669  10.703 -10.224  1.00  0.00    +0.184 C 
ATOM     10  C   UNL     1      -0.468   9.711 -10.425  1.00  0.00    +0.179 C 
ATOM     11  C   UNL     1       1.257  10.051  -8.975  1.00  0.00    +0.184 C 
ATOM     12  C   UNL     1       0.261   8.380 -10.233  1.00  0.00    +0.195 C 
ATOM     13  O   UNL     1      -1.505   9.984  -9.457  1.00  0.00    -0.341 OA
ATOM     14  O   UNL     1       1.303   8.632  -9.263  1.00  0.00    -0.370 OA
ATOM     15  C   UNL     1       0.326  10.273  -7.773  1.00  0.00    +0.202 C 
BRANCH   9  16
ATOM     16  O   UNL     1       0.263  12.041  -9.966  1.00  0.00    -0.341 OA
BRANCH  16  17
ATOM     17  C   UNL     1       0.808  13.023 -10.868  1.00  0.00    +0.282 C 
ATOM     18  C   UNL     1       1.355  13.239 -13.373  1.00  0.00    +0.186 C 
ATOM     19  C   UNL     1       2.595  13.958 -12.821  1.00  0.00    +0.177 C 
ATOM     20  C   UNL     1       0.591  12.462 -12.289  1.00  0.00    +0.202 C 
ATOM     21  C   UNL     1       3.141  13.305 -11.551  1.00  0.00    +0.178 C 
ATOM     22  O   UNL     1       2.163  13.259 -10.508  1.00  0.00    -0.341 OA
BRANCH  18  23
ATOM     23  O   UNL     1       1.809  12.333 -14.404  1.00  0.00    -0.341 OA
BRANCH  23  24
ATOM     24  C   UNL     1       1.002  12.350 -15.588  1.00  0.00    +0.282 C 
ATOM     25  C   UNL     1       1.206   9.442 -15.151  1.00  0.00    +0.195 C 
ATOM     26  C   UNL     1      -0.002  10.133 -15.780  1.00  0.00    +0.178 C 
ATOM     27  O   UNL     1       2.329   9.738 -16.014  1.00  0.00    -0.370 OA
ATOM     28  C   UNL     1       0.356  10.038 -17.251  1.00  0.00    +0.177 C 
ATOM     29  O   UNL     1      -0.153  11.513 -15.402  1.00  0.00    -0.341 OA
ATOM     30  C   UNL     1       1.808  10.488 -17.133  1.00  0.00    +0.183 C 
ATOM     31  C   UNL     1       1.872  11.992 -16.827  1.00  0.00    +0.202 C 
BRANCH  28  32
ATOM     32  O   UNL     1      -0.438  10.868 -18.088  1.00  0.00    -0.387 OA
ATOM     33  H   UNL     1       0.056  11.002 -18.919  1.00  0.00    +0.211 HD
ENDBRANCH  28  32
BRANCH  31  34
ATOM     34  O   UNL     1       1.443  12.743 -17.977  1.00  0.00    -0.385 OA
ATOM     35  H   UNL     1       0.482  12.909 -17.859  1.00  0.00    +0.211 HD
ENDBRANCH  31  34
ENDBRANCH  23  24
ENDBRANCH  18  23
BRANCH  19  36
ATOM     36  O   UNL     1       2.208  15.310 -12.511  1.00  0.00    -0.387 OA
ATOM     37  H   UNL     1       1.239  15.328 -12.405  1.00  0.00    +0.211 HD
ENDBRANCH  19  36
BRANCH  20  38
ATOM     38  O   UNL     1      -0.815  12.443 -12.611  1.00  0.00    -0.385 OA
ATOM     39  H   UNL     1      -1.033  13.343 -12.931  1.00  0.00    +0.211 HD
ENDBRANCH  20  38
BRANCH  21  40
ATOM     40  C   UNL     1       3.763  11.916 -11.747  1.00  0.00    +0.191 C 
BRANCH  40  41
ATOM     41  O   UNL     1       5.190  12.016 -11.638  1.00  0.00    -0.394 OA
ATOM     42  H   UNL     1       5.542  11.477 -12.384  1.00  0.00    +0.210 HD
ENDBRANCH  40  41
ENDBRANCH  21  40
ENDBRANCH  16  17
ENDBRANCH   9  16
BRANCH  15  43
ATOM     43  O   UNL     1       0.846   9.612  -6.612  1.00  0.00    -0.385 OA
ATOM     44  H   UNL     1       0.872   8.665  -6.856  1.00  0.00    +0.211 HD
ENDBRANCH  15  43
ENDBRANCH   7   8
ENDBRANCH   1   7
BRANCH   2  45
ATOM     45  O   UNL     1      -1.978   8.780  -4.092  1.00  0.00    -0.387 OA
ATOM     46  H   UNL     1      -2.757   9.108  -3.596  1.00  0.00    +0.211 HD
ENDBRANCH   2  45
BRANCH   6  47
ATOM     47  O   UNL     1       0.043   6.173  -6.928  1.00  0.00    -0.385 OA
ATOM     48  H   UNL     1      -0.237   6.210  -7.863  1.00  0.00    +0.211 HD
ENDBRANCH   6  47
BRANCH   3  49
ATOM     49  C   UNL     1      -4.935   8.362  -5.492  1.00  0.00    +0.191 C 
BRANCH  49  50
ATOM     50  O   UNL     1      -4.787   9.711  -5.929  1.00  0.00    -0.394 OA
ATOM     51  H   UNL     1      -4.100   9.701  -6.633  1.00  0.00    +0.210 HD
ENDBRANCH  49  50
ENDBRANCH   3  49
BRANCH   5  52
ATOM     52  O   UNL     1      -2.604   4.782  -5.805  1.00  0.00    -0.341 OA
BRANCH  52  53
ATOM     53  C   UNL     1      -2.043   3.576  -6.332  1.00  0.00    +0.184 C 
ATOM     54  C   UNL     1      -2.970   2.420  -5.998  1.00  0.00    +0.179 C 
ATOM     55  C   UNL     1      -2.142   3.463  -7.858  1.00  0.00    +0.184 C 
ATOM     56  C   UNL     1      -4.141   2.698  -6.944  1.00  0.00    +0.195 C 
ATOM     57  O   UNL     1      -2.307   1.166  -6.275  1.00  0.00    -0.341 OA
ATOM     58  O   UNL     1      -3.548   3.239  -8.150  1.00  0.00    -0.370 OA
ATOM     59  C   UNL     1      -1.365   2.221  -8.312  1.00  0.00    +0.202 C 
ATOM     60  C   UNL     1      -1.985   0.960  -7.656  1.00  0.00    +0.282 C 
BRANCH  59  61
ATOM     61  O   UNL     1       0.022   2.360  -7.959  1.00  0.00    -0.385 OA
ATOM     62  H   UNL     1       0.493   2.512  -8.802  1.00  0.00    +0.211 HD
ENDBRANCH  59  61
BRANCH  60  63
ATOM     63  O   UNL     1      -1.010  -0.088  -7.727  1.00  0.00    -0.341 OA
BRANCH  63  64
ATOM     64  C   UNL     1      -1.435  -1.241  -8.473  1.00  0.00    +0.186 C 
ATOM     65  C   UNL     1      -1.414  -0.852  -9.967  1.00  0.00    +0.177 C 
ATOM     66  C   UNL     1      -0.561  -2.497  -8.260  1.00  0.00    +0.202 C 
ATOM     67  C   UNL     1       0.040  -0.712 -10.464  1.00  0.00    +0.178 C 
ATOM     68  C   UNL     1       0.854  -2.282  -8.849  1.00  0.00    +0.279 C 
ATOM     69  O   UNL     1       0.777  -1.921 -10.226  1.00  0.00    -0.342 OA
BRANCH  65  70
ATOM     70  O   UNL     1      -2.133  -1.820 -10.748  1.00  0.00    -0.387 OA
ATOM     71  H   UNL     1      -1.468  -2.465 -11.081  1.00  0.00    +0.211 HD
ENDBRANCH  65  70
BRANCH  66  72
ATOM     72  O   UNL     1      -1.217  -3.608  -8.905  1.00  0.00    -0.385 OA
ATOM     73  H   UNL     1      -0.640  -4.389  -8.801  1.00  0.00    +0.211 HD
ENDBRANCH  66  72
BRANCH  67  74
ATOM     74  C   UNL     1       0.120  -0.382 -11.966  1.00  0.00    +0.191 C 
BRANCH  74  75
ATOM     75  O   UNL     1       1.230  -0.987 -12.628  1.00  0.00    -0.394 OA
ATOM     76  H   UNL     1       1.156  -1.953 -12.477  1.00  0.00    +0.210 HD
ENDBRANCH  74  75
ENDBRANCH  67  74
BRANCH  68  77
ATOM     77  O   UNL     1       1.646  -1.359  -8.121  1.00  0.00    -0.366 OA
ATOM     78  H   UNL     1       1.642  -0.506  -8.595  1.00  0.00    +0.213 HD
ENDBRANCH  68  77
ENDBRANCH  63  64
ENDBRANCH  60  63
ENDBRANCH  52  53
ENDBRANCH   5  52
TORSDOF 27
ENDMDL
MODEL 5
REMARK VINA RESULT:    -9.230     14.812     18.866
REMARK INTER + INTRA:         -22.442
REMARK INTER:                 -19.115
REMARK INTRA:                  -3.327
REMARK UNBOUND:                -2.419
REMARK SMILES OC[C@@H]1O[C@H](O[C@H]2[C@@H]3OC[C@H]2O[C@@H](O[C@@H]2[C@H](O)[C@@H](O[C@@H]4[C@@H]5OC[C@H]4O[C@H](O[C@@H]4[C@@H](O)[C@H](O)O[C@@H](CO)[C@H]4O)[C@@H]5O)O[C@H](CO)[C@H]2O)[C@H]3O)[C@@H](O)[C@H](O[C@@H]2O[C@@H]3CO[C@H]([C@H]2O)[C@@H]3O)[C@H]1O
REMARK SMILES IDX 15 1 45 2 42 3 41 4 18 5 16 6 14 7 13 8 7 9 11 10 8 11 10 12
REMARK SMILES IDX 12 13 9 14 47 15 6 16 5 17 51 18 63 19 49 20 3 21 4 22 52 23
REMARK SMILES IDX 53 24 56 25 55 26 57 27 61 28 54 29 58 30 59 31 62 32 60 34
REMARK SMILES IDX 64 36 50 38 2 40 1 41 48 43 46 45 17 47 43 49 44 50 19 52
REMARK SMILES IDX 20 53 24 54 21 55 23 56 25 57 22 58 39 59 26 60 40 61 27 63
REMARK SMILES IDX 28 64 37 65 29 66 34 67 31 68 33 69 38 70 30 72 35 74 36 75
REMARK SMILES IDX 32 77
REMARK H PARENT 62 33 60 35 64 37 50 39 1 42 48 44 46 46 17 48 44 51 40 62
REMARK H PARENT 38 71 30 73 36 76 32 78
ROOT
ATOM      1  C   UNL     1     -16.010  -1.125 -20.457  1.00  0.00    +0.186 C 
ATOM      2  C   UNL     1     -14.881  -1.739 -21.310  1.00  0.00    +0.177 C 
ATOM      3  C   UNL     1     -14.208  -2.944 -20.615  1.00  0.00    +0.178 C 
ATOM      4  O   UNL     1     -14.416  -2.922 -19.203  1.00  0.00    -0.341 OA
ATOM      5  C   UNL     1     -15.792  -3.076 -18.848  1.00  0.00    +0.282 C 
ATOM      6  C   UNL     1     -16.759  -2.268 -19.759  1.00  0.00    +0.202 C 
ENDROOT
BRANCH   1   7
ATOM      7  O   UNL     1     -15.597  -0.206 -19.418  1.00  0.00    -0.341 OA
BRANCH   7   8
ATOM      8  C   UNL     1     -14.841   0.915 -19.895  1.00  0.00    +0.282 C 
ATOM      9  C   UNL     1     -12.925   2.405 -18.250  1.00  0.00    +0.184 C 
ATOM     10  C   UNL     1     -12.857   0.902 -18.487  1.00  0.00    +0.179 C 
ATOM     11  C   UNL     1     -14.413   2.466 -17.912  1.00  0.00    +0.184 C 
ATOM     12  C   UNL     1     -13.638   0.375 -17.282  1.00  0.00    +0.195 C 
ATOM     13  O   UNL     1     -13.444   0.604 -19.773  1.00  0.00    -0.341 OA
ATOM     14  O   UNL     1     -14.649   1.369 -16.995  1.00  0.00    -0.370 OA
ATOM     15  C   UNL     1     -15.253   2.230 -19.177  1.00  0.00    +0.202 C 
BRANCH   9  16
ATOM     16  O   UNL     1     -12.619   3.208 -19.381  1.00  0.00    -0.341 OA
BRANCH  16  17
ATOM     17  C   UNL     1     -11.225   3.240 -19.742  1.00  0.00    +0.282 C 
ATOM     18  C   UNL     1      -9.271   4.915 -19.718  1.00  0.00    +0.186 C 
ATOM     19  C   UNL     1      -8.972   4.258 -21.074  1.00  0.00    +0.177 C 
ATOM     20  C   UNL     1     -10.674   4.573 -19.192  1.00  0.00    +0.202 C 
ATOM     21  C   UNL     1     -10.239   3.940 -21.870  1.00  0.00    +0.178 C 
ATOM     22  O   UNL     1     -11.122   3.076 -21.150  1.00  0.00    -0.341 OA
BRANCH  18  23
ATOM     23  O   UNL     1      -9.145   6.343 -19.898  1.00  0.00    -0.341 OA
BRANCH  23  24
ATOM     24  C   UNL     1      -7.800   6.826 -19.782  1.00  0.00    +0.282 C 
ATOM     25  C   UNL     1      -9.284   9.275 -19.081  1.00  0.00    +0.195 C 
ATOM     26  C   UNL     1      -7.913   8.910 -18.514  1.00  0.00    +0.178 C 
ATOM     27  O   UNL     1      -9.108   9.380 -20.514  1.00  0.00    -0.370 OA
ATOM     28  C   UNL     1      -7.004   9.622 -19.498  1.00  0.00    +0.177 C 
ATOM     29  O   UNL     1      -7.631   7.498 -18.521  1.00  0.00    -0.341 OA
ATOM     30  C   UNL     1      -7.703   9.172 -20.777  1.00  0.00    +0.183 C 
ATOM     31  C   UNL     1      -7.435   7.681 -21.029  1.00  0.00    +0.202 C 
BRANCH  28  32
ATOM     32  O   UNL     1      -5.643   9.221 -19.413  1.00  0.00    -0.387 OA
ATOM     33  H   UNL     1      -5.421   9.142 -18.466  1.00  0.00    +0.211 HD
ENDBRANCH  28  32
BRANCH  31  34
ATOM     34  O   UNL     1      -6.054   7.486 -21.386  1.00  0.00    -0.385 OA
ATOM     35  H   UNL     1      -5.932   7.903 -22.267  1.00  0.00    +0.211 HD
ENDBRANCH  31  34
ENDBRANCH  23  24
ENDBRANCH  18  23
BRANCH  19  36
ATOM     36  O   UNL     1      -8.275   3.025 -20.812  1.00  0.00    -0.387 OA
ATOM     37  H   UNL     1      -8.019   2.638 -21.669  1.00  0.00    +0.211 HD
ENDBRANCH  19  36
BRANCH  20  38
ATOM     38  O   UNL     1     -10.655   4.550 -17.750  1.00  0.00    -0.385 OA
ATOM     39  H   UNL     1      -9.718   4.667 -17.489  1.00  0.00    +0.211 HD
ENDBRANCH  20  38
BRANCH  21  40
ATOM     40  C   UNL     1     -11.010   5.164 -22.384  1.00  0.00    +0.191 C 
BRANCH  40  41
ATOM     41  O   UNL     1     -10.077   6.143 -22.866  1.00  0.00    -0.394 OA
ATOM     42  H   UNL     1      -9.423   6.253 -22.138  1.00  0.00    +0.210 HD
ENDBRANCH  40  41
ENDBRANCH  21  40
ENDBRANCH  16  17
ENDBRANCH   9  16
BRANCH  15  43
ATOM     43  O   UNL     1     -16.650   2.228 -18.854  1.00  0.00    -0.385 OA
ATOM     44  H   UNL     1     -16.686   2.477 -17.908  1.00  0.00    +0.211 HD
ENDBRANCH  15  43
ENDBRANCH   7   8
ENDBRANCH   1   7
BRANCH   2  45
ATOM     45  O   UNL     1     -15.424  -2.175 -22.568  1.00  0.00    -0.387 OA
ATOM     46  H   UNL     1     -16.080  -2.871 -22.350  1.00  0.00    +0.211 HD
ENDBRANCH   2  45
BRANCH   6  47
ATOM     47  O   UNL     1     -17.848  -1.735 -18.982  1.00  0.00    -0.385 OA
ATOM     48  H   UNL     1     -18.499  -2.459 -18.909  1.00  0.00    +0.211 HD
ENDBRANCH   6  47
BRANCH   3  49
ATOM     49  C   UNL     1     -12.697  -2.954 -20.884  1.00  0.00    +0.191 C 
BRANCH  49  50
ATOM     50  O   UNL     1     -12.370  -2.206 -22.052  1.00  0.00    -0.394 OA
ATOM     51  H   UNL     1     -13.075  -2.398 -22.711  1.00  0.00    +0.210 HD
ENDBRANCH  49  50
ENDBRANCH   3  49
BRANCH   5  52
ATOM     52  O   UNL     1     -16.177  -4.456 -18.887  1.00  0.00    -0.341 OA
BRANCH  52  53
ATOM     53  C   UNL     1     -15.487  -5.270 -17.935  1.00  0.00    +0.184 C 
ATOM     54  C   UNL     1     -16.399  -5.507 -16.744  1.00  0.00    +0.179 C 
ATOM     55  C   UNL     1     -15.347  -6.736 -18.361  1.00  0.00    +0.184 C 
ATOM     56  C   UNL     1     -17.424  -6.472 -17.344  1.00  0.00    +0.195 C 
ATOM     57  O   UNL     1     -15.643  -6.091 -15.659  1.00  0.00    -0.341 OA
ATOM     58  O   UNL     1     -16.680  -7.307 -18.267  1.00  0.00    -0.370 OA
ATOM     59  C   UNL     1     -14.453  -7.461 -17.349  1.00  0.00    +0.202 C 
ATOM     60  C   UNL     1     -15.106  -7.388 -15.944  1.00  0.00    +0.282 C 
BRANCH  59  61
ATOM     61  O   UNL     1     -13.144  -6.866 -17.343  1.00  0.00    -0.385 OA
ATOM     62  H   UNL     1     -12.527  -7.588 -17.573  1.00  0.00    +0.211 HD
ENDBRANCH  59  61
BRANCH  60  63
ATOM     63  O   UNL     1     -14.084  -7.661 -14.976  1.00  0.00    -0.341 OA
BRANCH  63  64
ATOM     64  C   UNL     1     -14.334  -7.100 -13.678  1.00  0.00    +0.186 C 
ATOM     65  C   UNL     1     -15.468  -7.927 -13.033  1.00  0.00    +0.177 C 
ATOM     66  C   UNL     1     -13.108  -7.093 -12.738  1.00  0.00    +0.202 C 
ATOM     67  C   UNL     1     -14.953  -9.328 -12.642  1.00  0.00    +0.178 C 
ATOM     68  C   UNL     1     -12.711  -8.538 -12.352  1.00  0.00    +0.279 C 
ATOM     69  O   UNL     1     -13.816  -9.227 -11.772  1.00  0.00    -0.342 OA
BRANCH  65  70
ATOM     70  O   UNL     1     -16.003  -7.240 -11.890  1.00  0.00    -0.387 OA
ATOM     71  H   UNL     1     -15.696  -6.307 -11.950  1.00  0.00    +0.211 HD
ENDBRANCH  65  70
BRANCH  66  72
ATOM     72  O   UNL     1     -13.454  -6.331 -11.563  1.00  0.00    -0.385 OA
ATOM     73  H   UNL     1     -13.741  -6.964 -10.877  1.00  0.00    +0.211 HD
ENDBRANCH  66  72
BRANCH  67  74
ATOM     74  C   UNL     1     -16.029 -10.176 -11.940  1.00  0.00    +0.191 C 
BRANCH  74  75
ATOM     75  O   UNL     1     -17.362  -9.728 -12.184  1.00  0.00    -0.394 OA
ATOM     76  H   UNL     1     -17.306  -9.047 -12.887  1.00  0.00    +0.210 HD
ENDBRANCH  74  75
ENDBRANCH  67  74
BRANCH  68  77
ATOM     77  O   UNL     1     -12.145  -9.283 -13.417  1.00  0.00    -0.366 OA
ATOM     78  H   UNL     1     -12.411 -10.217 -13.318  1.00  0.00    +0.213 HD
ENDBRANCH  68  77
ENDBRANCH  63  64
ENDBRANCH  60  63
ENDBRANCH  52  53
ENDBRANCH   5  52
TORSDOF 27
ENDMDL
MODEL 6
REMARK VINA RESULT:    -9.174      1.593      2.832
REMARK INTER + INTRA:         -22.318
REMARK INTER:                 -20.050
REMARK INTRA:                  -2.268
REMARK UNBOUND:                -2.419
REMARK SMILES OC[C@@H]1O[C@H](O[C@H]2[C@@H]3OC[C@H]2O[C@@H](O[C@@H]2[C@H](O)[C@@H](O[C@@H]4[C@@H]5OC[C@H]4O[C@H](O[C@@H]4[C@@H](O)[C@H](O)O[C@@H](CO)[C@H]4O)[C@@H]5O)O[C@H](CO)[C@H]2O)[C@H]3O)[C@@H](O)[C@H](O[C@@H]2O[C@@H]3CO[C@H]([C@H]2O)[C@@H]3O)[C@H]1O
REMARK SMILES IDX 15 1 45 2 42 3 41 4 18 5 16 6 14 7 13 8 7 9 11 10 8 11 10 12
REMARK SMILES IDX 12 13 9 14 47 15 6 16 5 17 51 18 63 19 49 20 3 21 4 22 52 23
REMARK SMILES IDX 53 24 56 25 55 26 57 27 61 28 54 29 58 30 59 31 62 32 60 34
REMARK SMILES IDX 64 36 50 38 2 40 1 41 48 43 46 45 17 47 43 49 44 50 19 52
REMARK SMILES IDX 20 53 24 54 21 55 23 56 25 57 22 58 39 59 26 60 40 61 27 63
REMARK SMILES IDX 28 64 37 65 29 66 34 67 31 68 33 69 38 70 30 72 35 74 36 75
REMARK SMILES IDX 32 77
REMARK H PARENT 62 33 60 35 64 37 50 39 1 42 48 44 46 46 17 48 44 51 40 62
REMARK H PARENT 38 71 30 73 36 76 32 78
ROOT
ATOM      1  C   UNL     1      -1.368   7.914  -6.357  1.00  0.00    +0.186 C 
ATOM      2  C   UNL     1      -2.384   8.504  -5.356  1.00  0.00    +0.177 C 
ATOM      3  C   UNL     1      -3.764   7.816  -5.446  1.00  0.00    +0.178 C 
ATOM      4  O   UNL     1      -3.949   7.167  -6.704  1.00  0.00    -0.341 OA
ATOM      5  C   UNL     1      -3.039   6.083  -6.902  1.00  0.00    +0.282 C 
ATOM      6  C   UNL     1      -1.592   6.398  -6.429  1.00  0.00    +0.202 C 
ENDROOT
BRANCH   1   7
ATOM      7  O   UNL     1      -1.449   8.410  -7.715  1.00  0.00    -0.341 OA
BRANCH   7   8
ATOM      8  C   UNL     1      -0.227   8.290  -8.455  1.00  0.00    +0.282 C 
ATOM      9  C   UNL     1       1.599  10.529  -8.955  1.00  0.00    +0.184 C 
ATOM     10  C   UNL     1       1.153  10.086  -7.568  1.00  0.00    +0.179 C 
ATOM     11  C   UNL     1       0.213  10.531  -9.597  1.00  0.00    +0.184 C 
ATOM     12  C   UNL     1      -0.059  10.992  -7.343  1.00  0.00    +0.195 C 
ATOM     13  O   UNL     1       0.861   8.672  -7.599  1.00  0.00    -0.341 OA
ATOM     14  O   UNL     1      -0.654  11.194  -8.645  1.00  0.00    -0.370 OA
ATOM     15  C   UNL     1      -0.285   9.090  -9.786  1.00  0.00    +0.202 C 
BRANCH   9  16
ATOM     16  O   UNL     1       2.475   9.630  -9.622  1.00  0.00    -0.341 OA
BRANCH  16  17
ATOM     17  C   UNL     1       3.533  10.259 -10.371  1.00  0.00    +0.282 C 
ATOM     18  C   UNL     1       6.098  10.444 -10.291  1.00  0.00    +0.186 C 
ATOM     19  C   UNL     1       5.792  11.897 -10.683  1.00  0.00    +0.177 C 
ATOM     20  C   UNL     1       4.851   9.686  -9.808  1.00  0.00    +0.202 C 
ATOM     21  C   UNL     1       4.550  12.451  -9.982  1.00  0.00    +0.178 C 
ATOM     22  O   UNL     1       3.385  11.669 -10.257  1.00  0.00    -0.341 OA
BRANCH  18  23
ATOM     23  O   UNL     1       7.089  10.486  -9.239  1.00  0.00    -0.341 OA
BRANCH  23  24
ATOM     24  C   UNL     1       8.372   9.979  -9.631  1.00  0.00    +0.282 C 
ATOM     25  C   UNL     1       7.430   7.745  -7.953  1.00  0.00    +0.195 C 
ATOM     26  C   UNL     1       8.348   7.583  -9.164  1.00  0.00    +0.178 C 
ATOM     27  O   UNL     1       8.144   8.594  -7.024  1.00  0.00    -0.370 OA
ATOM     28  C   UNL     1       9.708   7.644  -8.496  1.00  0.00    +0.177 C 
ATOM     29  O   UNL     1       8.232   8.639 -10.135  1.00  0.00    -0.341 OA
ATOM     30  C   UNL     1       9.440   8.854  -7.607  1.00  0.00    +0.183 C 
ATOM     31  C   UNL     1       9.382  10.131  -8.457  1.00  0.00    +0.202 C 
BRANCH  28  32
ATOM     32  O   UNL     1      10.785   7.824  -9.405  1.00  0.00    -0.387 OA
ATOM     33  H   UNL     1      10.576   8.603  -9.954  1.00  0.00    +0.211 HD
ENDBRANCH  28  32
BRANCH  31  34
ATOM     34  O   UNL     1      10.693  10.444  -8.960  1.00  0.00    -0.385 OA
ATOM     35  H   UNL     1      10.753  11.424  -8.993  1.00  0.00    +0.211 HD
ENDBRANCH  31  34
ENDBRANCH  23  24
ENDBRANCH  18  23
BRANCH  19  36
ATOM     36  O   UNL     1       5.563  11.921 -12.105  1.00  0.00    -0.387 OA
ATOM     37  H   UNL     1       5.534  12.853 -12.389  1.00  0.00    +0.211 HD
ENDBRANCH  19  36
BRANCH  20  38
ATOM     38  O   UNL     1       4.976   8.290 -10.146  1.00  0.00    -0.385 OA
ATOM     39  H   UNL     1       4.277   7.825  -9.641  1.00  0.00    +0.211 HD
ENDBRANCH  20  38
BRANCH  21  40
ATOM     40  C   UNL     1       4.695  12.659  -8.468  1.00  0.00    +0.191 C 
BRANCH  40  41
ATOM     41  O   UNL     1       5.533  13.798  -8.225  1.00  0.00    -0.394 OA
ATOM     42  H   UNL     1       5.535  13.910  -7.246  1.00  0.00    +0.210 HD
ENDBRANCH  40  41
ENDBRANCH  21  40
ENDBRANCH  16  17
ENDBRANCH   9  16
BRANCH  15  43
ATOM     43  O   UNL     1      -1.610   9.089 -10.334  1.00  0.00    -0.385 OA
ATOM     44  H   UNL     1      -2.105   9.731  -9.786  1.00  0.00    +0.211 HD
ENDBRANCH  15  43
ENDBRANCH   7   8
ENDBRANCH   1   7
BRANCH   2  45
ATOM     45  O   UNL     1      -1.875   8.347  -4.021  1.00  0.00    -0.387 OA
ATOM     46  H   UNL     1      -2.479   8.857  -3.442  1.00  0.00    +0.211 HD
ENDBRANCH   2  45
BRANCH   6  47
ATOM     47  O   UNL     1      -0.634   5.807  -7.327  1.00  0.00    -0.385 OA
ATOM     48  H   UNL     1      -0.813   4.847  -7.308  1.00  0.00    +0.211 HD
ENDBRANCH   6  47
BRANCH   3  49
ATOM     49  C   UNL     1      -4.895   8.836  -5.254  1.00  0.00    +0.191 C 
BRANCH  49  50
ATOM     50  O   UNL     1      -4.571  10.092  -5.845  1.00  0.00    -0.394 OA
ATOM     51  H   UNL     1      -3.647  10.297  -5.573  1.00  0.00    +0.210 HD
ENDBRANCH  49  50
ENDBRANCH   3  49
BRANCH   5  52
ATOM     52  O   UNL     1      -3.493   4.906  -6.224  1.00  0.00    -0.341 OA
BRANCH  52  53
ATOM     53  C   UNL     1      -2.931   3.696  -6.739  1.00  0.00    +0.184 C 
ATOM     54  C   UNL     1      -2.889   2.664  -5.624  1.00  0.00    +0.179 C 
ATOM     55  C   UNL     1      -3.870   2.926  -7.675  1.00  0.00    +0.184 C 
ATOM     56  C   UNL     1      -4.375   2.322  -5.484  1.00  0.00    +0.195 C 
ATOM     57  O   UNL     1      -2.088   1.534  -6.035  1.00  0.00    -0.341 OA
ATOM     58  O   UNL     1      -4.917   2.381  -6.827  1.00  0.00    -0.370 OA
ATOM     59  C   UNL     1      -3.101   1.750  -8.288  1.00  0.00    +0.202 C 
ATOM     60  C   UNL     1      -2.614   0.810  -7.154  1.00  0.00    +0.282 C 
BRANCH  59  61
ATOM     61  O   UNL     1      -1.996   2.242  -9.063  1.00  0.00    -0.385 OA
ATOM     62  H   UNL     1      -2.362   2.432  -9.950  1.00  0.00    +0.211 HD
ENDBRANCH  59  61
BRANCH  60  63
ATOM     63  O   UNL     1      -1.558  -0.000  -7.687  1.00  0.00    -0.341 OA
BRANCH  63  64
ATOM     64  C   UNL     1      -2.004  -1.058  -8.551  1.00  0.00    +0.186 C 
ATOM     65  C   UNL     1      -1.513  -0.724  -9.976  1.00  0.00    +0.177 C 
ATOM     66  C   UNL     1      -1.499  -2.464  -8.152  1.00  0.00    +0.202 C 
ATOM     67  C   UNL     1       0.017  -0.905 -10.071  1.00  0.00    +0.178 C 
ATOM     68  C   UNL     1       0.033  -2.565  -8.344  1.00  0.00    +0.279 C 
ATOM     69  O   UNL     1       0.396  -2.234  -9.682  1.00  0.00    -0.342 OA
BRANCH  65  70
ATOM     70  O   UNL     1      -2.187  -1.542 -10.945  1.00  0.00    -0.387 OA
ATOM     71  H   UNL     1      -3.075  -1.142 -11.084  1.00  0.00    +0.211 HD
ENDBRANCH  65  70
BRANCH  66  72
ATOM     72  O   UNL     1      -2.180  -3.430  -8.978  1.00  0.00    -0.385 OA
ATOM     73  H   UNL     1      -1.755  -4.296  -8.826  1.00  0.00    +0.211 HD
ENDBRANCH  66  72
BRANCH  67  74
ATOM     74  C   UNL     1       0.554  -0.641 -11.489  1.00  0.00    +0.191 C 
BRANCH  74  75
ATOM     75  O   UNL     1       0.045  -1.541 -12.472  1.00  0.00    -0.394 OA
ATOM     76  H   UNL     1      -0.014  -1.038 -13.312  1.00  0.00    +0.210 HD
ENDBRANCH  74  75
ENDBRANCH  67  74
BRANCH  68  77
ATOM     77  O   UNL     1       0.782  -1.808  -7.408  1.00  0.00    -0.366 OA
ATOM     78  H   UNL     1       0.321  -0.961  -7.256  1.00  0.00    +0.213 HD
ENDBRANCH  68  77
ENDBRANCH  63  64
ENDBRANCH  60  63
ENDBRANCH  52  53
ENDBRANCH   5  52
TORSDOF 27
ENDMDL
MODEL 7
REMARK VINA RESULT:    -9.102     30.766     34.302
REMARK INTER + INTRA:         -22.163
REMARK INTER:                 -18.129
REMARK INTRA:                  -4.034
REMARK UNBOUND:                -2.419
REMARK SMILES OC[C@@H]1O[C@H](O[C@H]2[C@@H]3OC[C@H]2O[C@@H](O[C@@H]2[C@H](O)[C@@H](O[C@@H]4[C@@H]5OC[C@H]4O[C@H](O[C@@H]4[C@@H](O)[C@H](O)O[C@@H](CO)[C@H]4O)[C@@H]5O)O[C@H](CO)[C@H]2O)[C@H]3O)[C@@H](O)[C@H](O[C@@H]2O[C@@H]3CO[C@H]([C@H]2O)[C@@H]3O)[C@H]1O
REMARK SMILES IDX 15 1 45 2 42 3 41 4 18 5 16 6 14 7 13 8 7 9 11 10 8 11 10 12
REMARK SMILES IDX 12 13 9 14 47 15 6 16 5 17 51 18 63 19 49 20 3 21 4 22 52 23
REMARK SMILES IDX 53 24 56 25 55 26 57 27 61 28 54 29 58 30 59 31 62 32 60 34
REMARK SMILES IDX 64 36 50 38 2 40 1 41 48 43 46 45 17 47 43 49 44 50 19 52
REMARK SMILES IDX 20 53 24 54 21 55 23 56 25 57 22 58 39 59 26 60 40 61 27 63
REMARK SMILES IDX 28 64 37 65 29 66 34 67 31 68 33 69 38 70 30 72 35 74 36 75
REMARK SMILES IDX 32 77
REMARK H PARENT 62 33 60 35 64 37 50 39 1 42 48 44 46 46 17 48 44 51 40 62
REMARK H PARENT 38 71 30 73 36 76 32 78
ROOT
ATOM      1  C   UNL     1      12.714   5.115  24.328  1.00  0.00    +0.186 C 
ATOM      2  C   UNL     1      14.159   5.605  24.103  1.00  0.00    +0.177 C 
ATOM      3  C   UNL     1      14.285   7.140  24.226  1.00  0.00    +0.178 C 
ATOM      4  O   UNL     1      13.028   7.790  24.031  1.00  0.00    -0.341 OA
ATOM      5  C   UNL     1      12.078   7.464  25.048  1.00  0.00    +0.282 C 
ATOM      6  C   UNL     1      12.089   5.961  25.444  1.00  0.00    +0.202 C 
ENDROOT
BRANCH   1   7
ATOM      7  O   UNL     1      11.823   5.209  23.190  1.00  0.00    -0.341 OA
BRANCH   7   8
ATOM      8  C   UNL     1      12.477   5.066  21.922  1.00  0.00    +0.282 C 
ATOM      9  C   UNL     1      11.059   5.002  19.357  1.00  0.00    +0.184 C 
ATOM     10  C   UNL     1      10.943   6.136  20.367  1.00  0.00    +0.179 C 
ATOM     11  C   UNL     1      10.869   3.857  20.350  1.00  0.00    +0.184 C 
ATOM     12  C   UNL     1       9.720   5.694  21.171  1.00  0.00    +0.195 C 
ATOM     13  O   UNL     1      12.173   6.218  21.121  1.00  0.00    -0.341 OA
ATOM     14  O   UNL     1       9.750   4.248  21.183  1.00  0.00    -0.370 OA
ATOM     15  C   UNL     1      12.113   3.717  21.241  1.00  0.00    +0.202 C 
BRANCH   9  16
ATOM     16  O   UNL     1      12.314   4.909  18.696  1.00  0.00    -0.341 OA
BRANCH  16  17
ATOM     17  C   UNL     1      12.316   5.374  17.332  1.00  0.00    +0.282 C 
ATOM     18  C   UNL     1      13.474   7.187  15.920  1.00  0.00    +0.186 C 
ATOM     19  C   UNL     1      12.069   7.308  15.312  1.00  0.00    +0.177 C 
ATOM     20  C   UNL     1      13.485   6.376  17.226  1.00  0.00    +0.202 C 
ATOM     21  C   UNL     1      10.958   7.159  16.352  1.00  0.00    +0.178 C 
ATOM     22  O   UNL     1      11.030   5.907  17.039  1.00  0.00    -0.341 OA
BRANCH  18  23
ATOM     23  O   UNL     1      13.949   8.530  16.168  1.00  0.00    -0.341 OA
BRANCH  23  24
ATOM     24  C   UNL     1      15.296   8.758  15.735  1.00  0.00    +0.282 C 
ATOM     25  C   UNL     1      15.656   8.966  18.654  1.00  0.00    +0.195 C 
ATOM     26  C   UNL     1      16.722   8.442  17.692  1.00  0.00    +0.178 C 
ATOM     27  O   UNL     1      15.384  10.327  18.244  1.00  0.00    -0.370 OA
ATOM     28  C   UNL     1      17.491   9.717  17.405  1.00  0.00    +0.177 C 
ATOM     29  O   UNL     1      16.194   7.903  16.466  1.00  0.00    -0.341 OA
ATOM     30  C   UNL     1      16.291  10.624  17.159  1.00  0.00    +0.183 C 
ATOM     31  C   UNL     1      15.630  10.275  15.818  1.00  0.00    +0.202 C 
BRANCH  28  32
ATOM     32  O   UNL     1      18.374   9.616  16.296  1.00  0.00    -0.387 OA
ATOM     33  H   UNL     1      18.635  10.523  16.047  1.00  0.00    +0.211 HD
ENDBRANCH  28  32
BRANCH  31  34
ATOM     34  O   UNL     1      16.493  10.659  14.733  1.00  0.00    -0.385 OA
ATOM     35  H   UNL     1      15.920  10.754  13.940  1.00  0.00    +0.211 HD
ENDBRANCH  31  34
ENDBRANCH  23  24
ENDBRANCH  18  23
BRANCH  19  36
ATOM     36  O   UNL     1      11.928   6.256  14.338  1.00  0.00    -0.387 OA
ATOM     37  H   UNL     1      10.977   6.091  14.210  1.00  0.00    +0.211 HD
ENDBRANCH  19  36
BRANCH  20  38
ATOM     38  O   UNL     1      14.746   5.690  17.356  1.00  0.00    -0.385 OA
ATOM     39  H   UNL     1      15.430   6.388  17.424  1.00  0.00    +0.211 HD
ENDBRANCH  20  38
BRANCH  21  40
ATOM     40  C   UNL     1      10.856   8.307  17.366  1.00  0.00    +0.191 C 
BRANCH  40  41
ATOM     41  O   UNL     1       9.530   8.340  17.912  1.00  0.00    -0.394 OA
ATOM     42  H   UNL     1       8.939   8.101  17.162  1.00  0.00    +0.210 HD
ENDBRANCH  40  41
ENDBRANCH  21  40
ENDBRANCH  16  17
ENDBRANCH   9  16
BRANCH  15  43
ATOM     43  O   UNL     1      11.915   2.682  22.212  1.00  0.00    -0.385 OA
ATOM     44  H   UNL     1      12.808   2.312  22.366  1.00  0.00    +0.211 HD
ENDBRANCH  15  43
ENDBRANCH   7   8
ENDBRANCH   1   7
BRANCH   2  45
ATOM     45  O   UNL     1      15.022   4.992  25.075  1.00  0.00    -0.387 OA
ATOM     46  H   UNL     1      15.832   4.732  24.589  1.00  0.00    +0.211 HD
ENDBRANCH   2  45
BRANCH   6  47
ATOM     47  O   UNL     1      10.749   5.505  25.710  1.00  0.00    -0.385 OA
ATOM     48  H   UNL     1      10.526   5.844  26.598  1.00  0.00    +0.211 HD
ENDBRANCH   6  47
BRANCH   3  49
ATOM     49  C   UNL     1      15.281   7.690  23.196  1.00  0.00    +0.191 C 
BRANCH  49  50
ATOM     50  O   UNL     1      14.693   7.785  21.901  1.00  0.00    -0.394 OA
ATOM     51  H   UNL     1      15.325   7.359  21.278  1.00  0.00    +0.210 HD
ENDBRANCH  49  50
ENDBRANCH   3  49
BRANCH   5  52
ATOM     52  O   UNL     1      12.303   8.247  26.226  1.00  0.00    -0.341 OA
BRANCH  52  53
ATOM     53  C   UNL     1      11.374   9.322  26.386  1.00  0.00    +0.184 C 
ATOM     54  C   UNL     1      10.877   9.328  27.822  1.00  0.00    +0.179 C 
ATOM     55  C   UNL     1      12.028  10.708  26.407  1.00  0.00    +0.184 C 
ATOM     56  C   UNL     1      12.119   9.833  28.561  1.00  0.00    +0.195 C 
ATOM     57  O   UNL     1       9.747  10.220  27.944  1.00  0.00    -0.341 OA
ATOM     58  O   UNL     1      12.738  10.795  27.672  1.00  0.00    -0.370 OA
ATOM     59  C   UNL     1      10.925  11.774  26.413  1.00  0.00    +0.202 C 
ATOM     60  C   UNL     1      10.047  11.596  27.679  1.00  0.00    +0.282 C 
BRANCH  59  61
ATOM     61  O   UNL     1      10.137  11.665  25.216  1.00  0.00    -0.385 OA
ATOM     62  H   UNL     1       9.206  11.708  25.511  1.00  0.00    +0.211 HD
ENDBRANCH  59  61
BRANCH  60  63
ATOM     63  O   UNL     1       8.809  12.278  27.446  1.00  0.00    -0.341 OA
BRANCH  63  64
ATOM     64  C   UNL     1       8.536  13.340  28.375  1.00  0.00    +0.186 C 
ATOM     65  C   UNL     1       7.221  14.013  27.926  1.00  0.00    +0.177 C 
ATOM     66  C   UNL     1       8.401  12.884  29.845  1.00  0.00    +0.202 C 
ATOM     67  C   UNL     1       6.021  13.081  28.200  1.00  0.00    +0.178 C 
ATOM     68  C   UNL     1       7.136  12.011  30.030  1.00  0.00    +0.279 C 
ATOM     69  O   UNL     1       5.974  12.708  29.585  1.00  0.00    -0.342 OA
BRANCH  65  70
ATOM     70  O   UNL     1       7.050  15.276  28.589  1.00  0.00    -0.387 OA
ATOM     71  H   UNL     1       7.261  15.974  27.928  1.00  0.00    +0.211 HD
ENDBRANCH  65  70
BRANCH  66  72
ATOM     72  O   UNL     1       8.328  14.065  30.671  1.00  0.00    -0.385 OA
ATOM     73  H   UNL     1       7.486  14.026  31.163  1.00  0.00    +0.211 HD
ENDBRANCH  66  72
BRANCH  67  74
ATOM     74  C   UNL     1       4.675  13.728  27.824  1.00  0.00    +0.191 C 
BRANCH  74  75
ATOM     75  O   UNL     1       3.679  12.788  27.425  1.00  0.00    -0.394 OA
ATOM     76  H   UNL     1       3.370  13.065  26.536  1.00  0.00    +0.210 HD
ENDBRANCH  74  75
ENDBRANCH  67  74
BRANCH  68  77
ATOM     77  O   UNL     1       7.227  10.731  29.429  1.00  0.00    -0.366 OA
ATOM     78  H   UNL     1       7.438  10.078  30.122  1.00  0.00    +0.213 HD
ENDBRANCH  68  77
ENDBRANCH  63  64
ENDBRANCH  60  63
ENDBRANCH  52  53
ENDBRANCH   5  52
TORSDOF 27
ENDMDL
MODEL 8
REMARK VINA RESULT:    -9.006      3.371     12.952
REMARK INTER + INTRA:         -21.956
REMARK INTER:                 -18.452
REMARK INTRA:                  -3.504
REMARK UNBOUND:                -2.419
REMARK SMILES OC[C@@H]1O[C@H](O[C@H]2[C@@H]3OC[C@H]2O[C@@H](O[C@@H]2[C@H](O)[C@@H](O[C@@H]4[C@@H]5OC[C@H]4O[C@H](O[C@@H]4[C@@H](O)[C@H](O)O[C@@H](CO)[C@H]4O)[C@@H]5O)O[C@H](CO)[C@H]2O)[C@H]3O)[C@@H](O)[C@H](O[C@@H]2O[C@@H]3CO[C@H]([C@H]2O)[C@@H]3O)[C@H]1O
REMARK SMILES IDX 15 1 45 2 42 3 41 4 18 5 16 6 14 7 13 8 7 9 11 10 8 11 10 12
REMARK SMILES IDX 12 13 9 14 47 15 6 16 5 17 51 18 63 19 49 20 3 21 4 22 52 23
REMARK SMILES IDX 53 24 56 25 55 26 57 27 61 28 54 29 58 30 59 31 62 32 60 34
REMARK SMILES IDX 64 36 50 38 2 40 1 41 48 43 46 45 17 47 43 49 44 50 19 52
REMARK SMILES IDX 20 53 24 54 21 55 23 56 25 57 22 58 39 59 26 60 40 61 27 63
REMARK SMILES IDX 28 64 37 65 29 66 34 67 31 68 33 69 38 70 30 72 35 74 36 75
REMARK SMILES IDX 32 77
REMARK H PARENT 62 33 60 35 64 37 50 39 1 42 48 44 46 46 17 48 44 51 40 62
REMARK H PARENT 38 71 30 73 36 76 32 78
ROOT
ATOM      1  C   UNL     1       3.654  10.165 -11.122  1.00  0.00    +0.186 C 
ATOM      2  C   UNL     1       3.283  11.329 -10.180  1.00  0.00    +0.177 C 
ATOM      3  C   UNL     1       4.335  11.543  -9.069  1.00  0.00    +0.178 C 
ATOM      4  O   UNL     1       5.123  10.372  -8.855  1.00  0.00    -0.341 OA
ATOM      5  C   UNL     1       5.922  10.032  -9.991  1.00  0.00    +0.282 C 
ATOM      6  C   UNL     1       5.172  10.192 -11.343  1.00  0.00    +0.202 C 
ENDROOT
BRANCH   1   7
ATOM      7  O   UNL     1       3.328   8.834 -10.653  1.00  0.00    -0.341 OA
BRANCH   7   8
ATOM      8  C   UNL     1       2.065   8.744  -9.980  1.00  0.00    +0.282 C 
ATOM      9  C   UNL     1       1.209   6.408  -8.430  1.00  0.00    +0.184 C 
ATOM     10  C   UNL     1       2.496   7.179  -8.169  1.00  0.00    +0.179 C 
ATOM     11  C   UNL     1       1.377   6.286  -9.943  1.00  0.00    +0.184 C 
ATOM     12  C   UNL     1       3.495   6.383  -9.009  1.00  0.00    +0.195 C 
ATOM     13  O   UNL     1       2.310   8.552  -8.578  1.00  0.00    -0.341 OA
ATOM     14  O   UNL     1       2.756   5.890 -10.150  1.00  0.00    -0.370 OA
ATOM     15  C   UNL     1       1.159   7.651 -10.612  1.00  0.00    +0.202 C 
BRANCH   9  16
ATOM     16  O   UNL     1       0.013   7.100  -8.098  1.00  0.00    -0.341 OA
BRANCH  16  17
ATOM     17  C   UNL     1      -0.545   6.762  -6.814  1.00  0.00    +0.282 C 
ATOM     18  C   UNL     1      -2.477   5.349  -5.870  1.00  0.00    +0.186 C 
ATOM     19  C   UNL     1      -2.610   6.550  -4.922  1.00  0.00    +0.177 C 
ATOM     20  C   UNL     1      -1.578   5.646  -7.080  1.00  0.00    +0.202 C 
ATOM     21  C   UNL     1      -2.364   7.887  -5.623  1.00  0.00    +0.178 C 
ATOM     22  O   UNL     1      -1.069   7.946  -6.226  1.00  0.00    -0.341 OA
BRANCH  18  23
ATOM     23  O   UNL     1      -3.810   5.008  -6.316  1.00  0.00    -0.341 OA
BRANCH  23  24
ATOM     24  C   UNL     1      -4.069   3.598  -6.344  1.00  0.00    +0.282 C 
ATOM     25  C   UNL     1      -5.948   4.419  -4.227  1.00  0.00    +0.195 C 
ATOM     26  C   UNL     1      -6.190   3.254  -5.185  1.00  0.00    +0.178 C 
ATOM     27  O   UNL     1      -4.737   4.096  -3.503  1.00  0.00    -0.370 OA
ATOM     28  C   UNL     1      -5.624   2.103  -4.375  1.00  0.00    +0.177 C 
ATOM     29  O   UNL     1      -5.486   3.366  -6.435  1.00  0.00    -0.341 OA
ATOM     30  C   UNL     1      -4.328   2.782  -3.943  1.00  0.00    +0.183 C 
ATOM     31  C   UNL     1      -3.372   2.907  -5.138  1.00  0.00    +0.202 C 
BRANCH  28  32
ATOM     32  O   UNL     1      -5.427   0.915  -5.129  1.00  0.00    -0.387 OA
ATOM     33  H   UNL     1      -5.584   0.160  -4.530  1.00  0.00    +0.211 HD
ENDBRANCH  28  32
BRANCH  31  34
ATOM     34  O   UNL     1      -2.889   1.605  -5.515  1.00  0.00    -0.385 OA
ATOM     35  H   UNL     1      -3.444   0.951  -5.036  1.00  0.00    +0.211 HD
ENDBRANCH  31  34
ENDBRANCH  23  24
ENDBRANCH  18  23
BRANCH  19  36
ATOM     36  O   UNL     1      -1.625   6.390  -3.883  1.00  0.00    -0.387 OA
ATOM     37  H   UNL     1      -1.407   7.275  -3.539  1.00  0.00    +0.211 HD
ENDBRANCH  19  36
BRANCH  20  38
ATOM     38  O   UNL     1      -0.912   4.435  -7.493  1.00  0.00    -0.385 OA
ATOM     39  H   UNL     1      -1.206   4.264  -8.412  1.00  0.00    +0.211 HD
ENDBRANCH  20  38
BRANCH  21  40
ATOM     40  C   UNL     1      -3.436   8.294  -6.644  1.00  0.00    +0.191 C 
BRANCH  40  41
ATOM     41  O   UNL     1      -2.989   9.453  -7.363  1.00  0.00    -0.394 OA
ATOM     42  H   UNL     1      -3.555   9.488  -8.168  1.00  0.00    +0.210 HD
ENDBRANCH  40  41
ENDBRANCH  21  40
ENDBRANCH  16  17
ENDBRANCH   9  16
BRANCH  15  43
ATOM     43  O   UNL     1       1.374   7.553 -12.026  1.00  0.00    -0.385 OA
ATOM     44  H   UNL     1       2.337   7.411 -12.121  1.00  0.00    +0.211 HD
ENDBRANCH  15  43
ENDBRANCH   7   8
ENDBRANCH   1   7
BRANCH   2  45
ATOM     45  O   UNL     1       3.168  12.538 -10.947  1.00  0.00    -0.387 OA
ATOM     46  H   UNL     1       4.084  12.850 -11.097  1.00  0.00    +0.211 HD
ENDBRANCH   2  45
BRANCH   6  47
ATOM     47  O   UNL     1       5.552   9.141 -12.251  1.00  0.00    -0.385 OA
ATOM     48  H   UNL     1       6.505   8.991 -12.097  1.00  0.00    +0.211 HD
ENDBRANCH   6  47
BRANCH   3  49
ATOM     49  C   UNL     1       3.660  11.923  -7.744  1.00  0.00    +0.191 C 
BRANCH  49  50
ATOM     50  O   UNL     1       2.378  12.507  -7.961  1.00  0.00    -0.394 OA
ATOM     51  H   UNL     1       2.000  12.687  -7.071  1.00  0.00    +0.210 HD
ENDBRANCH  49  50
ENDBRANCH   3  49
BRANCH   5  52
ATOM     52  O   UNL     1       7.112  10.829 -10.033  1.00  0.00    -0.341 OA
BRANCH  52  53
ATOM     53  C   UNL     1       8.251  10.190  -9.452  1.00  0.00    +0.184 C 
ATOM     54  C   UNL     1       8.683   9.047 -10.355  1.00  0.00    +0.179 C 
ATOM     55  C   UNL     1       9.542  11.011  -9.555  1.00  0.00    +0.184 C 
ATOM     56  C   UNL     1       9.284   9.815 -11.536  1.00  0.00    +0.195 C 
ATOM     57  O   UNL     1       9.651   8.221  -9.669  1.00  0.00    -0.341 OA
ATOM     58  O   UNL     1       9.922  10.982 -10.957  1.00  0.00    -0.370 OA
ATOM     59  C   UNL     1      10.642  10.302  -8.756  1.00  0.00    +0.202 C 
ATOM     60  C   UNL     1      10.877   8.889  -9.349  1.00  0.00    +0.282 C 
BRANCH  59  61
ATOM     61  O   UNL     1      10.265  10.227  -7.371  1.00  0.00    -0.385 OA
ATOM     62  H   UNL     1      10.509  11.091  -6.985  1.00  0.00    +0.211 HD
ENDBRANCH  59  61
BRANCH  60  63
ATOM     63  O   UNL     1      11.554   8.109  -8.355  1.00  0.00    -0.341 OA
BRANCH  63  64
ATOM     64  C   UNL     1      12.967   8.355  -8.272  1.00  0.00    +0.186 C 
ATOM     65  C   UNL     1      13.313   8.539  -6.778  1.00  0.00    +0.177 C 
ATOM     66  C   UNL     1      13.847   7.231  -8.865  1.00  0.00    +0.202 C 
ATOM     67  C   UNL     1      13.215   7.191  -6.036  1.00  0.00    +0.178 C 
ATOM     68  C   UNL     1      13.731   5.944  -8.014  1.00  0.00    +0.279 C 
ATOM     69  O   UNL     1      14.060   6.208  -6.653  1.00  0.00    -0.342 OA
BRANCH  65  70
ATOM     70  O   UNL     1      14.622   9.112  -6.632  1.00  0.00    -0.387 OA
ATOM     71  H   UNL     1      15.258   8.468  -7.018  1.00  0.00    +0.211 HD
ENDBRANCH  65  70
BRANCH  66  72
ATOM     72  O   UNL     1      15.210   7.703  -8.890  1.00  0.00    -0.385 OA
ATOM     73  H   UNL     1      15.678   7.286  -8.141  1.00  0.00    +0.211 HD
ENDBRANCH  66  72
BRANCH  67  74
ATOM     74  C   UNL     1      13.607   7.306  -4.551  1.00  0.00    +0.191 C 
BRANCH  74  75
ATOM     75  O   UNL     1      13.298   8.574  -3.973  1.00  0.00    -0.394 OA
ATOM     76  H   UNL     1      13.805   8.633  -3.136  1.00  0.00    +0.210 HD
ENDBRANCH  74  75
ENDBRANCH  67  74
BRANCH  68  77
ATOM     77  O   UNL     1      12.476   5.295  -8.121  1.00  0.00    -0.366 OA
ATOM     78  H   UNL     1      12.359   4.995  -9.042  1.00  0.00    +0.213 HD
ENDBRANCH  68  77
ENDBRANCH  63  64
ENDBRANCH  60  63
ENDBRANCH  52  53
ENDBRANCH   5  52
TORSDOF 27
ENDMDL
MODEL 9
REMARK VINA RESULT:    -8.997      4.777      8.351
REMARK INTER + INTRA:         -21.936
REMARK INTER:                 -17.635
REMARK INTRA:                  -4.301
REMARK UNBOUND:                -2.419
REMARK SMILES OC[C@@H]1O[C@H](O[C@H]2[C@@H]3OC[C@H]2O[C@@H](O[C@@H]2[C@H](O)[C@@H](O[C@@H]4[C@@H]5OC[C@H]4O[C@H](O[C@@H]4[C@@H](O)[C@H](O)O[C@@H](CO)[C@H]4O)[C@@H]5O)O[C@H](CO)[C@H]2O)[C@H]3O)[C@@H](O)[C@H](O[C@@H]2O[C@@H]3CO[C@H]([C@H]2O)[C@@H]3O)[C@H]1O
REMARK SMILES IDX 15 1 45 2 42 3 41 4 18 5 16 6 14 7 13 8 7 9 11 10 8 11 10 12
REMARK SMILES IDX 12 13 9 14 47 15 6 16 5 17 51 18 63 19 49 20 3 21 4 22 52 23
REMARK SMILES IDX 53 24 56 25 55 26 57 27 61 28 54 29 58 30 59 31 62 32 60 34
REMARK SMILES IDX 64 36 50 38 2 40 1 41 48 43 46 45 17 47 43 49 44 50 19 52
REMARK SMILES IDX 20 53 24 54 21 55 23 56 25 57 22 58 39 59 26 60 40 61 27 63
REMARK SMILES IDX 28 64 37 65 29 66 34 67 31 68 33 69 38 70 30 72 35 74 36 75
REMARK SMILES IDX 32 77
REMARK H PARENT 62 33 60 35 64 37 50 39 1 42 48 44 46 46 17 48 44 51 40 62
REMARK H PARENT 38 71 30 73 36 76 32 78
ROOT
ATOM      1  C   UNL     1       2.508   8.556  -9.337  1.00  0.00    +0.186 C 
ATOM      2  C   UNL     1       3.167   9.643  -8.464  1.00  0.00    +0.177 C 
ATOM      3  C   UNL     1       2.202  10.206  -7.397  1.00  0.00    +0.178 C 
ATOM      4  O   UNL     1       0.836   9.979  -7.750  1.00  0.00    -0.341 OA
ATOM      5  C   UNL     1       0.501   8.591  -7.784  1.00  0.00    +0.282 C 
ATOM      6  C   UNL     1       1.598   7.707  -8.440  1.00  0.00    +0.202 C 
ENDROOT
BRANCH   1   7
ATOM      7  O   UNL     1       1.685   9.028 -10.431  1.00  0.00    -0.341 OA
BRANCH   7   8
ATOM      8  C   UNL     1       2.176  10.218 -11.061  1.00  0.00    +0.282 C 
ATOM      9  C   UNL     1       0.582  11.873 -12.882  1.00  0.00    +0.184 C 
ATOM     10  C   UNL     1       0.162  11.522 -11.461  1.00  0.00    +0.179 C 
ATOM     11  C   UNL     1       0.982  10.461 -13.305  1.00  0.00    +0.184 C 
ATOM     12  C   UNL     1      -0.679  10.268 -11.700  1.00  0.00    +0.195 C 
ATOM     13  O   UNL     1       1.347  11.319 -10.659  1.00  0.00    -0.341 OA
ATOM     14  O   UNL     1      -0.085   9.600 -12.837  1.00  0.00    -0.370 OA
ATOM     15  C   UNL     1       2.283  10.047 -12.602  1.00  0.00    +0.202 C 
BRANCH   9  16
ATOM     16  O   UNL     1       1.678  12.772 -12.982  1.00  0.00    -0.341 OA
BRANCH  16  17
ATOM     17  C   UNL     1       1.353  14.065 -13.529  1.00  0.00    +0.282 C 
ATOM     18  C   UNL     1       0.847  16.440 -12.679  1.00  0.00    +0.186 C 
ATOM     19  C   UNL     1      -0.203  16.386 -13.799  1.00  0.00    +0.177 C 
ATOM     20  C   UNL     1       1.432  15.057 -12.350  1.00  0.00    +0.202 C 
ATOM     21  C   UNL     1      -0.868  15.014 -13.921  1.00  0.00    +0.178 C 
ATOM     22  O   UNL     1       0.084  13.976 -14.165  1.00  0.00    -0.341 OA
BRANCH  18  23
ATOM     23  O   UNL     1       0.198  16.993 -11.511  1.00  0.00    -0.341 OA
BRANCH  23  24
ATOM     24  C   UNL     1       0.794  18.207 -11.037  1.00  0.00    +0.282 C 
ATOM     25  C   UNL     1       0.990  16.557  -8.602  1.00  0.00    +0.195 C 
ATOM     26  C   UNL     1       1.995  17.641  -8.987  1.00  0.00    +0.178 C 
ATOM     27  O   UNL     1      -0.285  17.227  -8.460  1.00  0.00    -0.370 OA
ATOM     28  C   UNL     1       1.415  18.835  -8.253  1.00  0.00    +0.177 C 
ATOM     29  O   UNL     1       2.051  17.916 -10.399  1.00  0.00    -0.341 OA
ATOM     30  C   UNL     1      -0.040  18.636  -8.666  1.00  0.00    +0.183 C 
ATOM     31  C   UNL     1      -0.221  18.984 -10.150  1.00  0.00    +0.202 C 
BRANCH  28  32
ATOM     32  O   UNL     1       1.964  20.080  -8.661  1.00  0.00    -0.387 OA
ATOM     33  H   UNL     1       1.274  20.552  -9.165  1.00  0.00    +0.211 HD
ENDBRANCH  28  32
BRANCH  31  34
ATOM     34  O   UNL     1      -0.071  20.403 -10.341  1.00  0.00    -0.385 OA
ATOM     35  H   UNL     1      -0.606  20.636 -11.132  1.00  0.00    +0.211 HD
ENDBRANCH  31  34
ENDBRANCH  23  24
ENDBRANCH  18  23
BRANCH  19  36
ATOM     36  O   UNL     1       0.471  16.680 -15.037  1.00  0.00    -0.387 OA
ATOM     37  H   UNL     1       0.045  17.462 -15.432  1.00  0.00    +0.211 HD
ENDBRANCH  19  36
BRANCH  20  38
ATOM     38  O   UNL     1       2.797  15.205 -11.909  1.00  0.00    -0.385 OA
ATOM     39  H   UNL     1       2.824  16.027 -11.377  1.00  0.00    +0.211 HD
ENDBRANCH  20  38
BRANCH  21  40
ATOM     40  C   UNL     1      -1.779  14.624 -12.748  1.00  0.00    +0.191 C 
BRANCH  40  41
ATOM     41  O   UNL     1      -2.357  15.810 -12.183  1.00  0.00    -0.394 OA
ATOM     42  H   UNL     1      -3.311  15.598 -12.067  1.00  0.00    +0.210 HD
ENDBRANCH  40  41
ENDBRANCH  21  40
ENDBRANCH  16  17
ENDBRANCH   9  16
BRANCH  15  43
ATOM     43  O   UNL     1       2.630   8.701 -12.951  1.00  0.00    -0.385 OA
ATOM     44  H   UNL     1       3.599   8.652 -12.820  1.00  0.00    +0.211 HD
ENDBRANCH  15  43
ENDBRANCH   7   8
ENDBRANCH   1   7
BRANCH   2  45
ATOM     45  O   UNL     1       4.314   9.084  -7.801  1.00  0.00    -0.387 OA
ATOM     46  H   UNL     1       3.959   8.492  -7.106  1.00  0.00    +0.211 HD
ENDBRANCH   2  45
BRANCH   6  47
ATOM     47  O   UNL     1       0.994   6.654  -9.215  1.00  0.00    -0.385 OA
ATOM     48  H   UNL     1       1.531   5.857  -9.041  1.00  0.00    +0.211 HD
ENDBRANCH   6  47
BRANCH   3  49
ATOM     49  C   UNL     1       2.413  11.715  -7.212  1.00  0.00    +0.191 C 
BRANCH  49  50
ATOM     50  O   UNL     1       3.793  12.032  -7.052  1.00  0.00    -0.394 OA
ATOM     51  H   UNL     1       4.064  11.661  -6.181  1.00  0.00    +0.210 HD
ENDBRANCH  49  50
ENDBRANCH   3  49
BRANCH   5  52
ATOM     52  O   UNL     1       0.246   8.095  -6.464  1.00  0.00    -0.341 OA
BRANCH  52  53
ATOM     53  C   UNL     1      -0.878   7.213  -6.391  1.00  0.00    +0.184 C 
ATOM     54  C   UNL     1      -1.672   7.539  -5.137  1.00  0.00    +0.179 C 
ATOM     55  C   UNL     1      -1.983   7.534  -7.404  1.00  0.00    +0.184 C 
ATOM     56  C   UNL     1      -2.307   8.876  -5.529  1.00  0.00    +0.195 C 
ATOM     57  O   UNL     1      -2.648   6.501  -4.895  1.00  0.00    -0.341 OA
ATOM     58  O   UNL     1      -2.598   8.769  -6.946  1.00  0.00    -0.370 OA
ATOM     59  C   UNL     1      -3.045   6.430  -7.341  1.00  0.00    +0.202 C 
ATOM     60  C   UNL     1      -3.649   6.379  -5.914  1.00  0.00    +0.282 C 
BRANCH  59  61
ATOM     61  O   UNL     1      -2.457   5.169  -7.700  1.00  0.00    -0.385 OA
ATOM     62  H   UNL     1      -1.819   5.370  -8.414  1.00  0.00    +0.211 HD
ENDBRANCH  59  61
BRANCH  60  63
ATOM     63  O   UNL     1      -4.282   5.103  -5.756  1.00  0.00    -0.341 OA
BRANCH  63  64
ATOM     64  C   UNL     1      -3.740   4.302  -4.693  1.00  0.00    +0.186 C 
ATOM     65  C   UNL     1      -4.925   3.587  -4.009  1.00  0.00    +0.177 C 
ATOM     66  C   UNL     1      -2.704   3.250  -5.151  1.00  0.00    +0.202 C 
ATOM     67  C   UNL     1      -5.493   2.489  -4.933  1.00  0.00    +0.178 C 
ATOM     68  C   UNL     1      -3.382   2.159  -6.014  1.00  0.00    +0.279 C 
ATOM     69  O   UNL     1      -4.466   1.559  -5.308  1.00  0.00    -0.342 OA
BRANCH  65  70
ATOM     70  O   UNL     1      -4.520   3.036  -2.746  1.00  0.00    -0.387 OA
ATOM     71  H   UNL     1      -3.765   2.431  -2.930  1.00  0.00    +0.211 HD
ENDBRANCH  65  70
BRANCH  66  72
ATOM     72  O   UNL     1      -2.112   2.669  -3.971  1.00  0.00    -0.385 OA
ATOM     73  H   UNL     1      -1.347   2.136  -4.260  1.00  0.00    +0.211 HD
ENDBRANCH  66  72
BRANCH  67  74
ATOM     74  C   UNL     1      -6.643   1.703  -4.275  1.00  0.00    +0.191 C 
BRANCH  74  75
ATOM     75  O   UNL     1      -7.516   2.514  -3.490  1.00  0.00    -0.394 OA
ATOM     76  H   UNL     1      -7.635   2.053  -2.633  1.00  0.00    +0.210 HD
ENDBRANCH  74  75
ENDBRANCH  67  74
BRANCH  68  77
ATOM     77  O   UNL     1      -3.791   2.610  -7.294  1.00  0.00    -0.366 OA
ATOM     78  H   UNL     1      -4.284   1.891  -7.732  1.00  0.00    +0.213 HD
ENDBRANCH  68  77
ENDBRANCH  63  64
ENDBRANCH  60  63
ENDBRANCH  52  53
ENDBRANCH   5  52
TORSDOF 27
ENDMDL
