MODEL 1
REMARK VINA RESULT:    -7.207      0.000      0.000
REMARK INTER + INTRA:         -11.580
REMARK INTER:                 -10.577
REMARK INTRA:                  -1.003
REMARK UNBOUND:                -1.003
REMARK SMILES OC[C@@H]1O[C@@H](O[C@H]2[C@@H](O)[C@H](O)[C@@H](O)O[C@@H]2CO)[C@H](O)[C@@H](O)[C@@H]1O
REMARK SMILES IDX 6 1 5 2 3 3 22 4 4 5 20 6 18 7 2 8 1 9 23 11 21 13 19 15
REMARK SMILES IDX 7 17 15 18 8 19 14 20 10 21 12 22 16 23 17 24 9 26 11 28
REMARK SMILES IDX 13 30
REMARK H PARENT 1 10 23 12 21 14 19 16 17 25 9 27 11 29 13 31
ROOT
ATOM      1  O   UNL     1       6.813 -15.141 -11.668  1.00  0.00    -0.341 OA
ENDROOT
BRANCH   1   2
ATOM      2  C   UNL     1       6.364 -15.029 -13.021  1.00  0.00    +0.282 C 
ATOM      3  C   UNL     1       6.456 -12.647 -13.196  1.00  0.00    +0.178 C 
ATOM      4  C   UNL     1       4.950 -12.487 -13.512  1.00  0.00    +0.177 C 
ATOM      5  O   UNL     1       6.939 -13.912 -13.691  1.00  0.00    -0.341 OA
ATOM      6  C   UNL     1       4.328 -13.826 -13.918  1.00  0.00    +0.179 C 
ATOM      7  C   UNL     1       4.815 -14.956 -13.017  1.00  0.00    +0.202 C 
BRANCH   3   8
ATOM      8  C   UNL     1       7.348 -11.528 -13.756  1.00  0.00    +0.191 C 
BRANCH   8   9
ATOM      9  O   UNL     1       6.925 -10.230 -13.334  1.00  0.00    -0.394 OA
ATOM     10  H   UNL     1       6.896 -10.277 -12.355  1.00  0.00    +0.210 HD
ENDBRANCH   8   9
ENDBRANCH   3   8
BRANCH   4  11
ATOM     11  O   UNL     1       4.683 -11.548 -14.569  1.00  0.00    -0.387 OA
ATOM     12  H   UNL     1       5.496 -11.005 -14.636  1.00  0.00    +0.211 HD
ENDBRANCH   4  11
BRANCH   6  13
ATOM     13  O   UNL     1       2.896 -13.708 -13.857  1.00  0.00    -0.387 OA
ATOM     14  H   UNL     1       2.541 -14.534 -14.242  1.00  0.00    +0.211 HD
ENDBRANCH   6  13
BRANCH   7  15
ATOM     15  O   UNL     1       4.216 -16.189 -13.470  1.00  0.00    -0.385 OA
ATOM     16  H   UNL     1       4.016 -16.095 -14.419  1.00  0.00    +0.211 HD
ENDBRANCH   7  15
ENDBRANCH   1   2
BRANCH   1  17
ATOM     17  C   UNL     1       6.249 -16.232 -10.928  1.00  0.00    +0.184 C 
ATOM     18  C   UNL     1       5.975 -15.710  -9.496  1.00  0.00    +0.178 C 
ATOM     19  C   UNL     1       7.158 -17.476 -10.842  1.00  0.00    +0.180 C 
ATOM     20  O   UNL     1       5.923 -16.746  -8.491  1.00  0.00    -0.342 OA
ATOM     21  C   UNL     1       6.486 -18.577  -9.996  1.00  0.00    +0.201 C 
ATOM     22  C   UNL     1       5.464 -17.984  -9.004  1.00  0.00    +0.279 C 
BRANCH  18  23
ATOM     23  C   UNL     1       4.676 -14.895  -9.433  1.00  0.00    +0.191 C 
BRANCH  23  24
ATOM     24  O   UNL     1       4.904 -13.574  -9.925  1.00  0.00    -0.394 OA
ATOM     25  H   UNL     1       4.423 -13.505 -10.773  1.00  0.00    +0.210 HD
ENDBRANCH  23  24
ENDBRANCH  18  23
BRANCH  19  26
ATOM     26  O   UNL     1       8.435 -17.120 -10.279  1.00  0.00    -0.387 OA
ATOM     27  H   UNL     1       8.577 -16.166 -10.420  1.00  0.00    +0.211 HD
ENDBRANCH  19  26
BRANCH  21  28
ATOM     28  O   UNL     1       5.803 -19.509 -10.848  1.00  0.00    -0.385 OA
ATOM     29  H   UNL     1       4.943 -19.098 -11.058  1.00  0.00    +0.211 HD
ENDBRANCH  21  28
BRANCH  22  30
ATOM     30  O   UNL     1       5.299 -18.894  -7.928  1.00  0.00    -0.366 OA
ATOM     31  H   UNL     1       4.600 -18.515  -7.371  1.00  0.00    +0.213 HD
ENDBRANCH  22  30
ENDBRANCH   1  17
TORSDOF 12
ENDMDL
MODEL 2
REMARK VINA RESULT:    -7.036     44.260     46.150
REMARK INTER + INTRA:         -11.330
REMARK INTER:                 -10.258
REMARK INTRA:                  -1.072
REMARK UNBOUND:                -1.003
REMARK SMILES OC[C@@H]1O[C@@H](O[C@H]2[C@@H](O)[C@H](O)[C@@H](O)O[C@@H]2CO)[C@H](O)[C@@H](O)[C@@H]1O
REMARK SMILES IDX 6 1 5 2 3 3 22 4 4 5 20 6 18 7 2 8 1 9 23 11 21 13 19 15
REMARK SMILES IDX 7 17 15 18 8 19 14 20 10 21 12 22 16 23 17 24 9 26 11 28
REMARK SMILES IDX 13 30
REMARK H PARENT 1 10 23 12 21 14 19 16 17 25 9 27 11 29 13 31
ROOT
ATOM      1  O   UNL     1      17.807   5.681  26.892  1.00  0.00    -0.341 OA
ENDROOT
BRANCH   1   2
ATOM      2  C   UNL     1      17.638   6.922  27.581  1.00  0.00    +0.282 C 
ATOM      3  C   UNL     1      19.875   7.730  27.350  1.00  0.00    +0.178 C 
ATOM      4  C   UNL     1      20.133   7.823  28.872  1.00  0.00    +0.177 C 
ATOM      5  O   UNL     1      18.479   7.948  27.065  1.00  0.00    -0.341 OA
ATOM      6  C   UNL     1      18.820   7.753  29.658  1.00  0.00    +0.179 C 
ATOM      7  C   UNL     1      17.895   6.681  29.092  1.00  0.00    +0.202 C 
BRANCH   3   8
ATOM      8  C   UNL     1      20.707   8.704  26.501  1.00  0.00    +0.191 C 
BRANCH   8   9
ATOM      9  O   UNL     1      20.127  10.008  26.442  1.00  0.00    -0.394 OA
ATOM     10  H   UNL     1      19.397   9.934  25.792  1.00  0.00    +0.210 HD
ENDBRANCH   8   9
ENDBRANCH   3   8
BRANCH   4  11
ATOM     11  O   UNL     1      20.809   9.030  29.266  1.00  0.00    -0.387 OA
ATOM     12  H   UNL     1      20.157   9.519  29.809  1.00  0.00    +0.211 HD
ENDBRANCH   4  11
BRANCH   6  13
ATOM     13  O   UNL     1      19.121   7.489  31.038  1.00  0.00    -0.387 OA
ATOM     14  H   UNL     1      18.317   7.732  31.540  1.00  0.00    +0.211 HD
ENDBRANCH   6  13
BRANCH   7  15
ATOM     15  O   UNL     1      16.671   6.688  29.855  1.00  0.00    -0.385 OA
ATOM     16  H   UNL     1      16.809   7.247  30.641  1.00  0.00    +0.211 HD
ENDBRANCH   7  15
ENDBRANCH   1   2
BRANCH   1  17
ATOM     17  C   UNL     1      16.727   4.750  27.039  1.00  0.00    +0.184 C 
ATOM     18  C   UNL     1      17.302   3.343  26.746  1.00  0.00    +0.178 C 
ATOM     19  C   UNL     1      15.535   5.010  26.095  1.00  0.00    +0.180 C 
ATOM     20  O   UNL     1      16.314   2.378  26.321  1.00  0.00    -0.342 OA
ATOM     21  C   UNL     1      14.443   3.939  26.296  1.00  0.00    +0.201 C 
ATOM     22  C   UNL     1      15.032   2.633  26.868  1.00  0.00    +0.279 C 
BRANCH  18  23
ATOM     23  C   UNL     1      18.054   2.778  27.959  1.00  0.00    +0.191 C 
BRANCH  23  24
ATOM     24  O   UNL     1      19.259   3.514  28.172  1.00  0.00    -0.394 OA
ATOM     25  H   UNL     1      19.817   2.971  28.763  1.00  0.00    +0.210 HD
ENDBRANCH  23  24
ENDBRANCH  18  23
BRANCH  19  26
ATOM     26  O   UNL     1      15.980   5.021  24.724  1.00  0.00    -0.387 OA
ATOM     27  H   UNL     1      16.918   5.284  24.709  1.00  0.00    +0.211 HD
ENDBRANCH  19  26
BRANCH  21  28
ATOM     28  O   UNL     1      13.439   4.419  27.203  1.00  0.00    -0.385 OA
ATOM     29  H   UNL     1      13.921   4.880  27.915  1.00  0.00    +0.211 HD
ENDBRANCH  21  28
BRANCH  22  30
ATOM     30  O   UNL     1      14.167   1.561  26.526  1.00  0.00    -0.366 OA
ATOM     31  H   UNL     1      13.519   1.935  25.907  1.00  0.00    +0.213 HD
ENDBRANCH  22  30
ENDBRANCH   1  17
TORSDOF 12
ENDMDL
MODEL 3
REMARK VINA RESULT:    -6.999     45.184     47.106
REMARK INTER + INTRA:         -11.275
REMARK INTER:                 -10.041
REMARK INTRA:                  -1.234
REMARK UNBOUND:                -1.003
REMARK SMILES OC[C@@H]1O[C@@H](O[C@H]2[C@@H](O)[C@H](O)[C@@H](O)O[C@@H]2CO)[C@H](O)[C@@H](O)[C@@H]1O
REMARK SMILES IDX 6 1 5 2 3 3 22 4 4 5 20 6 18 7 2 8 1 9 23 11 21 13 19 15
REMARK SMILES IDX 7 17 15 18 8 19 14 20 10 21 12 22 16 23 17 24 9 26 11 28
REMARK SMILES IDX 13 30
REMARK H PARENT 1 10 23 12 21 14 19 16 17 25 9 27 11 29 13 31
ROOT
ATOM      1  O   UNL     1      18.837   5.556  28.240  1.00  0.00    -0.341 OA
ENDROOT
BRANCH   1   2
ATOM      2  C   UNL     1      18.159   4.302  28.357  1.00  0.00    +0.282 C 
ATOM      3  C   UNL     1      19.279   3.161  26.580  1.00  0.00    +0.178 C 
ATOM      4  C   UNL     1      17.988   2.889  25.773  1.00  0.00    +0.177 C 
ATOM      5  O   UNL     1      18.987   3.203  27.991  1.00  0.00    -0.341 OA
ATOM      6  C   UNL     1      16.743   3.103  26.637  1.00  0.00    +0.179 C 
ATOM      7  C   UNL     1      16.873   4.360  27.491  1.00  0.00    +0.202 C 
BRANCH   3   8
ATOM      8  C   UNL     1      20.406   2.144  26.342  1.00  0.00    +0.191 C 
BRANCH   8   9
ATOM      9  O   UNL     1      20.809   2.086  24.973  1.00  0.00    -0.394 OA
ATOM     10  H   UNL     1      20.503   1.211  24.654  1.00  0.00    +0.210 HD
ENDBRANCH   8   9
ENDBRANCH   3   8
BRANCH   4  11
ATOM     11  O   UNL     1      17.919   1.557  25.235  1.00  0.00    -0.387 OA
ATOM     12  H   UNL     1      18.730   1.112  25.556  1.00  0.00    +0.211 HD
ENDBRANCH   4  11
BRANCH   6  13
ATOM     13  O   UNL     1      15.593   3.187  25.779  1.00  0.00    -0.387 OA
ATOM     14  H   UNL     1      15.695   4.019  25.273  1.00  0.00    +0.211 HD
ENDBRANCH   6  13
BRANCH   7  15
ATOM     15  O   UNL     1      15.684   4.485  28.300  1.00  0.00    -0.385 OA
ATOM     16  H   UNL     1      15.938   4.895  29.147  1.00  0.00    +0.211 HD
ENDBRANCH   7  15
ENDBRANCH   1   2
BRANCH   1  17
ATOM     17  C   UNL     1      18.977   6.288  29.464  1.00  0.00    +0.184 C 
ATOM     18  C   UNL     1      18.377   7.694  29.221  1.00  0.00    +0.178 C 
ATOM     19  C   UNL     1      20.435   6.443  29.945  1.00  0.00    +0.180 C 
ATOM     20  O   UNL     1      18.887   8.715  30.105  1.00  0.00    -0.342 OA
ATOM     21  C   UNL     1      20.490   7.276  31.242  1.00  0.00    +0.201 C 
ATOM     22  C   UNL     1      19.264   8.203  31.371  1.00  0.00    +0.279 C 
BRANCH  18  23
ATOM     23  C   UNL     1      16.845   7.676  29.318  1.00  0.00    +0.191 C 
BRANCH  23  24
ATOM     24  O   UNL     1      16.421   6.596  30.150  1.00  0.00    -0.394 OA
ATOM     25  H   UNL     1      16.796   5.781  29.763  1.00  0.00    +0.210 HD
ENDBRANCH  23  24
ENDBRANCH  18  23
BRANCH  19  26
ATOM     26  O   UNL     1      21.234   7.062  28.918  1.00  0.00    -0.387 OA
ATOM     27  H   UNL     1      22.014   6.501  28.756  1.00  0.00    +0.211 HD
ENDBRANCH  19  26
BRANCH  21  28
ATOM     28  O   UNL     1      20.525   6.409  32.387  1.00  0.00    -0.385 OA
ATOM     29  H   UNL     1      20.231   5.535  32.068  1.00  0.00    +0.211 HD
ENDBRANCH  21  28
BRANCH  22  30
ATOM     30  O   UNL     1      19.606   9.288  32.220  1.00  0.00    -0.366 OA
ATOM     31  H   UNL     1      19.762   8.895  33.095  1.00  0.00    +0.213 HD
ENDBRANCH  22  30
ENDBRANCH   1  17
TORSDOF 12
ENDMDL
MODEL 4
REMARK VINA RESULT:    -6.857     44.092     46.057
REMARK INTER + INTRA:         -11.067
REMARK INTER:                 -10.359
REMARK INTRA:                  -0.708
REMARK UNBOUND:                -1.003
REMARK SMILES OC[C@@H]1O[C@@H](O[C@H]2[C@@H](O)[C@H](O)[C@@H](O)O[C@@H]2CO)[C@H](O)[C@@H](O)[C@@H]1O
REMARK SMILES IDX 6 1 5 2 3 3 22 4 4 5 20 6 18 7 2 8 1 9 23 11 21 13 19 15
REMARK SMILES IDX 7 17 15 18 8 19 14 20 10 21 12 22 16 23 17 24 9 26 11 28
REMARK SMILES IDX 13 30
REMARK H PARENT 1 10 23 12 21 14 19 16 17 25 9 27 11 29 13 31
ROOT
ATOM      1  O   UNL     1      17.630   6.227  26.415  1.00  0.00    -0.341 OA
ENDROOT
BRANCH   1   2
ATOM      2  C   UNL     1      17.680   5.029  25.636  1.00  0.00    +0.282 C 
ATOM      3  C   UNL     1      15.633   4.060  26.400  1.00  0.00    +0.178 C 
ATOM      4  C   UNL     1      16.301   2.784  26.964  1.00  0.00    +0.177 C 
ATOM      5  O   UNL     1      16.383   4.563  25.277  1.00  0.00    -0.341 OA
ATOM      6  C   UNL     1      17.727   2.627  26.427  1.00  0.00    +0.179 C 
ATOM      7  C   UNL     1      18.469   3.959  26.434  1.00  0.00    +0.202 C 
BRANCH   3   8
ATOM      8  C   UNL     1      14.169   3.877  25.970  1.00  0.00    +0.191 C 
BRANCH   8   9
ATOM      9  O   UNL     1      13.248   4.343  26.956  1.00  0.00    -0.394 OA
ATOM     10  H   UNL     1      13.339   5.319  26.950  1.00  0.00    +0.210 HD
ENDBRANCH   8   9
ENDBRANCH   3   8
BRANCH   4  11
ATOM     11  O   UNL     1      15.585   1.577  26.651  1.00  0.00    -0.387 OA
ATOM     12  H   UNL     1      14.669   1.740  26.956  1.00  0.00    +0.211 HD
ENDBRANCH   4  11
BRANCH   6  13
ATOM     13  O   UNL     1      18.418   1.655  27.229  1.00  0.00    -0.387 OA
ATOM     14  H   UNL     1      18.341   0.805  26.749  1.00  0.00    +0.211 HD
ENDBRANCH   6  13
BRANCH   7  15
ATOM     15  O   UNL     1      19.789   3.746  25.892  1.00  0.00    -0.385 OA
ATOM     16  H   UNL     1      20.438   3.959  26.587  1.00  0.00    +0.211 HD
ENDBRANCH   7  15
ENDBRANCH   1   2
BRANCH   1  17
ATOM     17  C   UNL     1      18.601   6.309  27.467  1.00  0.00    +0.184 C 
ATOM     18  C   UNL     1      17.867   6.852  28.717  1.00  0.00    +0.178 C 
ATOM     19  C   UNL     1      19.799   7.230  27.152  1.00  0.00    +0.180 C 
ATOM     20  O   UNL     1      18.732   7.497  29.677  1.00  0.00    -0.342 OA
ATOM     21  C   UNL     1      20.766   7.287  28.352  1.00  0.00    +0.201 C 
ATOM     22  C   UNL     1      20.044   6.962  29.676  1.00  0.00    +0.279 C 
BRANCH  18  23
ATOM     23  C   UNL     1      17.076   5.746  29.430  1.00  0.00    +0.191 C 
BRANCH  23  24
ATOM     24  O   UNL     1      16.024   6.320  30.206  1.00  0.00    -0.394 OA
ATOM     25  H   UNL     1      15.598   5.584  30.686  1.00  0.00    +0.210 HD
ENDBRANCH  23  24
ENDBRANCH  18  23
BRANCH  19  26
ATOM     26  O   UNL     1      19.335   8.552  26.818  1.00  0.00    -0.387 OA
ATOM     27  H   UNL     1      19.153   9.032  27.647  1.00  0.00    +0.211 HD
ENDBRANCH  19  26
BRANCH  21  28
ATOM     28  O   UNL     1      21.833   6.343  28.174  1.00  0.00    -0.385 OA
ATOM     29  H   UNL     1      21.407   5.467  28.116  1.00  0.00    +0.211 HD
ENDBRANCH  21  28
BRANCH  22  30
ATOM     30  O   UNL     1      20.776   7.543  30.743  1.00  0.00    -0.366 OA
ATOM     31  H   UNL     1      20.444   8.452  30.824  1.00  0.00    +0.213 HD
ENDBRANCH  22  30
ENDBRANCH   1  17
TORSDOF 12
ENDMDL
MODEL 5
REMARK VINA RESULT:    -6.794      1.490      2.193
REMARK INTER + INTRA:         -10.975
REMARK INTER:                  -9.713
REMARK INTRA:                  -1.262
REMARK UNBOUND:                -1.003
REMARK SMILES OC[C@@H]1O[C@@H](O[C@H]2[C@@H](O)[C@H](O)[C@@H](O)O[C@@H]2CO)[C@H](O)[C@@H](O)[C@@H]1O
REMARK SMILES IDX 6 1 5 2 3 3 22 4 4 5 20 6 18 7 2 8 1 9 23 11 21 13 19 15
REMARK SMILES IDX 7 17 15 18 8 19 14 20 10 21 12 22 16 23 17 24 9 26 11 28
REMARK SMILES IDX 13 30
REMARK H PARENT 1 10 23 12 21 14 19 16 17 25 9 27 11 29 13 31
ROOT
ATOM      1  O   UNL     1       6.649 -14.765 -11.207  1.00  0.00    -0.341 OA
ENDROOT
BRANCH   1   2
ATOM      2  C   UNL     1       6.361 -14.794 -12.607  1.00  0.00    +0.282 C 
ATOM      3  C   UNL     1       6.285 -12.432 -12.971  1.00  0.00    +0.178 C 
ATOM      4  C   UNL     1       4.821 -12.431 -13.472  1.00  0.00    +0.177 C 
ATOM      5  O   UNL     1       6.923 -13.683 -13.299  1.00  0.00    -0.341 OA
ATOM      6  C   UNL     1       4.361 -13.846 -13.832  1.00  0.00    +0.179 C 
ATOM      7  C   UNL     1       4.822 -14.858 -12.789  1.00  0.00    +0.202 C 
BRANCH   3   8
ATOM      8  C   UNL     1       7.147 -11.284 -13.517  1.00  0.00    +0.191 C 
BRANCH   8   9
ATOM      9  O   UNL     1       7.357 -11.381 -14.926  1.00  0.00    -0.394 OA
ATOM     10  H   UNL     1       8.271 -11.055 -15.071  1.00  0.00    +0.210 HD
ENDBRANCH   8   9
ENDBRANCH   3   8
BRANCH   4  11
ATOM     11  O   UNL     1       4.612 -11.601 -14.627  1.00  0.00    -0.387 OA
ATOM     12  H   UNL     1       3.680 -11.757 -14.886  1.00  0.00    +0.211 HD
ENDBRANCH   4  11
BRANCH   6  13
ATOM     13  O   UNL     1       2.928 -13.851 -13.947  1.00  0.00    -0.387 OA
ATOM     14  H   UNL     1       2.655 -14.788 -13.875  1.00  0.00    +0.211 HD
ENDBRANCH   6  13
BRANCH   7  15
ATOM     15  O   UNL     1       4.383 -16.169 -13.202  1.00  0.00    -0.385 OA
ATOM     16  H   UNL     1       4.363 -16.187 -14.176  1.00  0.00    +0.211 HD
ENDBRANCH   7  15
ENDBRANCH   1   2
BRANCH   1  17
ATOM     17  C   UNL     1       7.366 -15.902 -10.709  1.00  0.00    +0.184 C 
ATOM     18  C   UNL     1       6.572 -16.438  -9.492  1.00  0.00    +0.178 C 
ATOM     19  C   UNL     1       8.812 -15.595 -10.267  1.00  0.00    +0.180 C 
ATOM     20  O   UNL     1       7.367 -17.201  -8.559  1.00  0.00    -0.342 OA
ATOM     21  C   UNL     1       9.488 -16.865  -9.711  1.00  0.00    +0.201 C 
ATOM     22  C   UNL     1       8.447 -17.874  -9.182  1.00  0.00    +0.279 C 
BRANCH  18  23
ATOM     23  C   UNL     1       5.374 -17.290  -9.932  1.00  0.00    +0.191 C 
BRANCH  23  24
ATOM     24  O   UNL     1       5.628 -17.865 -11.215  1.00  0.00    -0.394 OA
ATOM     25  H   UNL     1       6.596 -17.972 -11.286  1.00  0.00    +0.210 HD
ENDBRANCH  23  24
ENDBRANCH  18  23
BRANCH  19  26
ATOM     26  O   UNL     1       8.817 -14.549  -9.277  1.00  0.00    -0.387 OA
ATOM     27  H   UNL     1       9.541 -13.931  -9.487  1.00  0.00    +0.211 HD
ENDBRANCH  19  26
BRANCH  21  28
ATOM     28  O   UNL     1      10.259 -17.507 -10.738  1.00  0.00    -0.385 OA
ATOM     29  H   UNL     1       9.871 -18.396 -10.847  1.00  0.00    +0.211 HD
ENDBRANCH  21  28
BRANCH  22  30
ATOM     30  O   UNL     1       9.076 -18.713  -8.227  1.00  0.00    -0.366 OA
ATOM     31  H   UNL     1      10.003 -18.783  -8.511  1.00  0.00    +0.213 HD
ENDBRANCH  22  30
ENDBRANCH   1  17
TORSDOF 12
ENDMDL
MODEL 6
REMARK VINA RESULT:    -6.753      1.513      6.147
REMARK INTER + INTRA:         -10.914
REMARK INTER:                 -10.267
REMARK INTRA:                  -0.647
REMARK UNBOUND:                -1.003
REMARK SMILES OC[C@@H]1O[C@@H](O[C@H]2[C@@H](O)[C@H](O)[C@@H](O)O[C@@H]2CO)[C@H](O)[C@@H](O)[C@@H]1O
REMARK SMILES IDX 6 1 5 2 3 3 22 4 4 5 20 6 18 7 2 8 1 9 23 11 21 13 19 15
REMARK SMILES IDX 7 17 15 18 8 19 14 20 10 21 12 22 16 23 17 24 9 26 11 28
REMARK SMILES IDX 13 30
REMARK H PARENT 1 10 23 12 21 14 19 16 17 25 9 27 11 29 13 31
ROOT
ATOM      1  O   UNL     1       4.804 -15.733 -10.770  1.00  0.00    -0.341 OA
ENDROOT
BRANCH   1   2
ATOM      2  C   UNL     1       5.488 -15.772  -9.514  1.00  0.00    +0.282 C 
ATOM      3  C   UNL     1       7.126 -17.416 -10.088  1.00  0.00    +0.178 C 
ATOM      4  C   UNL     1       6.691 -18.414  -8.989  1.00  0.00    +0.177 C 
ATOM      5  O   UNL     1       6.874 -16.062  -9.661  1.00  0.00    -0.341 OA
ATOM      6  C   UNL     1       5.803 -17.731  -7.945  1.00  0.00    +0.179 C 
ATOM      7  C   UNL     1       4.781 -16.812  -8.606  1.00  0.00    +0.202 C 
BRANCH   3   8
ATOM      8  C   UNL     1       8.598 -17.532 -10.509  1.00  0.00    +0.191 C 
BRANCH   8   9
ATOM      9  O   UNL     1       9.489 -16.985  -9.536  1.00  0.00    -0.394 OA
ATOM     10  H   UNL     1      10.389 -17.163  -9.884  1.00  0.00    +0.210 HD
ENDBRANCH   8   9
ENDBRANCH   3   8
BRANCH   4  11
ATOM     11  O   UNL     1       7.796 -19.014  -8.291  1.00  0.00    -0.387 OA
ATOM     12  H   UNL     1       8.596 -18.633  -8.709  1.00  0.00    +0.211 HD
ENDBRANCH   4  11
BRANCH   6  13
ATOM     13  O   UNL     1       5.147 -18.742  -7.162  1.00  0.00    -0.387 OA
ATOM     14  H   UNL     1       5.826 -19.422  -6.976  1.00  0.00    +0.211 HD
ENDBRANCH   6  13
BRANCH   7  15
ATOM     15  O   UNL     1       4.001 -16.180  -7.569  1.00  0.00    -0.385 OA
ATOM     16  H   UNL     1       4.416 -15.323  -7.360  1.00  0.00    +0.211 HD
ENDBRANCH   7  15
ENDBRANCH   1   2
BRANCH   1  17
ATOM     17  C   UNL     1       5.261 -14.725 -11.680  1.00  0.00    +0.184 C 
ATOM     18  C   UNL     1       4.312 -13.511 -11.522  1.00  0.00    +0.178 C 
ATOM     19  C   UNL     1       5.269 -15.164 -13.160  1.00  0.00    +0.180 C 
ATOM     20  O   UNL     1       4.263 -12.646 -12.678  1.00  0.00    -0.342 OA
ATOM     21  C   UNL     1       5.734 -14.005 -14.065  1.00  0.00    +0.201 C 
ATOM     22  C   UNL     1       5.479 -12.634 -13.404  1.00  0.00    +0.279 C 
BRANCH  18  23
ATOM     23  C   UNL     1       4.674 -12.671 -10.290  1.00  0.00    +0.191 C 
BRANCH  23  24
ATOM     24  O   UNL     1       3.554 -12.591  -9.407  1.00  0.00    -0.394 OA
ATOM     25  H   UNL     1       3.061 -11.784  -9.653  1.00  0.00    +0.210 HD
ENDBRANCH  23  24
ENDBRANCH  18  23
BRANCH  19  26
ATOM     26  O   UNL     1       3.956 -15.611 -13.552  1.00  0.00    -0.387 OA
ATOM     27  H   UNL     1       3.614 -15.000 -14.230  1.00  0.00    +0.211 HD
ENDBRANCH  19  26
BRANCH  21  28
ATOM     28  O   UNL     1       7.139 -14.122 -14.337  1.00  0.00    -0.385 OA
ATOM     29  H   UNL     1       7.345 -13.421 -14.984  1.00  0.00    +0.211 HD
ENDBRANCH  21  28
BRANCH  22  30
ATOM     30  O   UNL     1       5.394 -11.651 -14.423  1.00  0.00    -0.366 OA
ATOM     31  H   UNL     1       6.191 -11.769 -14.967  1.00  0.00    +0.213 HD
ENDBRANCH  22  30
ENDBRANCH   1  17
TORSDOF 12
ENDMDL
MODEL 7
REMARK VINA RESULT:    -6.057      1.861      6.226
REMARK INTER + INTRA:          -9.893
REMARK INTER:                  -9.114
REMARK INTRA:                  -0.780
REMARK UNBOUND:                -1.003
REMARK SMILES OC[C@@H]1O[C@@H](O[C@H]2[C@@H](O)[C@H](O)[C@@H](O)O[C@@H]2CO)[C@H](O)[C@@H](O)[C@@H]1O
REMARK SMILES IDX 6 1 5 2 3 3 22 4 4 5 20 6 18 7 2 8 1 9 23 11 21 13 19 15
REMARK SMILES IDX 7 17 15 18 8 19 14 20 10 21 12 22 16 23 17 24 9 26 11 28
REMARK SMILES IDX 13 30
REMARK H PARENT 1 10 23 12 21 14 19 16 17 25 9 27 11 29 13 31
ROOT
ATOM      1  O   UNL     1       7.161 -14.699 -12.163  1.00  0.00    -0.341 OA
ENDROOT
BRANCH   1   2
ATOM      2  C   UNL     1       6.901 -15.544 -11.040  1.00  0.00    +0.282 C 
ATOM      3  C   UNL     1       9.144 -16.279 -10.660  1.00  0.00    +0.178 C 
ATOM      4  C   UNL     1       8.821 -17.777 -10.865  1.00  0.00    +0.177 C 
ATOM      5  O   UNL     1       7.995 -15.588 -10.129  1.00  0.00    -0.341 OA
ATOM      6  C   UNL     1       7.312 -18.029 -10.801  1.00  0.00    +0.179 C 
ATOM      7  C   UNL     1       6.541 -16.958 -11.566  1.00  0.00    +0.202 C 
BRANCH   3   8
ATOM      8  C   UNL     1      10.347 -16.005  -9.745  1.00  0.00    +0.191 C 
BRANCH   8   9
ATOM      9  O   UNL     1      11.544 -16.627 -10.216  1.00  0.00    -0.394 OA
ATOM     10  H   UNL     1      11.302 -17.566 -10.364  1.00  0.00    +0.210 HD
ENDBRANCH   8   9
ENDBRANCH   3   8
BRANCH   4  11
ATOM     11  O   UNL     1       9.444 -18.636  -9.894  1.00  0.00    -0.387 OA
ATOM     12  H   UNL     1       8.848 -19.409  -9.820  1.00  0.00    +0.211 HD
ENDBRANCH   4  11
BRANCH   6  13
ATOM     13  O   UNL     1       7.037 -19.334 -11.337  1.00  0.00    -0.387 OA
ATOM     14  H   UNL     1       7.026 -19.230 -12.309  1.00  0.00    +0.211 HD
ENDBRANCH   6  13
BRANCH   7  15
ATOM     15  O   UNL     1       5.130 -17.237 -11.441  1.00  0.00    -0.385 OA
ATOM     16  H   UNL     1       4.669 -16.393 -11.282  1.00  0.00    +0.211 HD
ENDBRANCH   7  15
ENDBRANCH   1   2
BRANCH   1  17
ATOM     17  C   UNL     1       6.002 -14.090 -12.748  1.00  0.00    +0.184 C 
ATOM     18  C   UNL     1       6.510 -13.060 -13.787  1.00  0.00    +0.178 C 
ATOM     19  C   UNL     1       5.086 -13.371 -11.737  1.00  0.00    +0.180 C 
ATOM     20  O   UNL     1       5.570 -12.003 -14.077  1.00  0.00    -0.342 OA
ATOM     21  C   UNL     1       3.892 -12.715 -12.461  1.00  0.00    +0.201 C 
ATOM     22  C   UNL     1       4.222 -12.416 -13.938  1.00  0.00    +0.279 C 
BRANCH  18  23
ATOM     23  C   UNL     1       6.913 -13.740 -15.103  1.00  0.00    +0.191 C 
BRANCH  23  24
ATOM     24  O   UNL     1       7.348 -12.759 -16.046  1.00  0.00    -0.394 OA
ATOM     25  H   UNL     1       7.071 -11.891 -15.694  1.00  0.00    +0.210 HD
ENDBRANCH  23  24
ENDBRANCH  18  23
BRANCH  19  26
ATOM     26  O   UNL     1       5.835 -12.380 -11.006  1.00  0.00    -0.387 OA
ATOM     27  H   UNL     1       5.904 -12.671 -10.078  1.00  0.00    +0.211 HD
ENDBRANCH  19  26
BRANCH  21  28
ATOM     28  O   UNL     1       2.749 -13.583 -12.419  1.00  0.00    -0.385 OA
ATOM     29  H   UNL     1       3.093 -14.484 -12.571  1.00  0.00    +0.211 HD
ENDBRANCH  21  28
BRANCH  22  30
ATOM     30  O   UNL     1       3.374 -11.371 -14.387  1.00  0.00    -0.366 OA
ATOM     31  H   UNL     1       3.660 -11.175 -15.295  1.00  0.00    +0.213 HD
ENDBRANCH  22  30
ENDBRANCH   1  17
TORSDOF 12
ENDMDL
MODEL 8
REMARK VINA RESULT:    -5.882     43.987     45.810
REMARK INTER + INTRA:          -9.636
REMARK INTER:                  -8.804
REMARK INTRA:                  -0.832
REMARK UNBOUND:                -1.003
REMARK SMILES OC[C@@H]1O[C@@H](O[C@H]2[C@@H](O)[C@H](O)[C@@H](O)O[C@@H]2CO)[C@H](O)[C@@H](O)[C@@H]1O
REMARK SMILES IDX 6 1 5 2 3 3 22 4 4 5 20 6 18 7 2 8 1 9 23 11 21 13 19 15
REMARK SMILES IDX 7 17 15 18 8 19 14 20 10 21 12 22 16 23 17 24 9 26 11 28
REMARK SMILES IDX 13 30
REMARK H PARENT 1 10 23 12 21 14 19 16 17 25 9 27 11 29 13 31
ROOT
ATOM      1  O   UNL     1      19.514   4.913  26.977  1.00  0.00    -0.341 OA
ENDROOT
BRANCH   1   2
ATOM      2  C   UNL     1      18.483   5.901  27.047  1.00  0.00    +0.282 C 
ATOM      3  C   UNL     1      19.861   7.770  27.613  1.00  0.00    +0.178 C 
ATOM      4  C   UNL     1      19.139   8.056  28.951  1.00  0.00    +0.177 C 
ATOM      5  O   UNL     1      18.943   7.193  26.664  1.00  0.00    -0.341 OA
ATOM      6  C   UNL     1      17.792   7.331  29.017  1.00  0.00    +0.179 C 
ATOM      7  C   UNL     1      17.908   5.905  28.487  1.00  0.00    +0.202 C 
BRANCH   3   8
ATOM      8  C   UNL     1      20.525   8.998  26.971  1.00  0.00    +0.191 C 
BRANCH   8   9
ATOM      9  O   UNL     1      21.244   8.669  25.782  1.00  0.00    -0.394 OA
ATOM     10  H   UNL     1      20.921   9.301  25.105  1.00  0.00    +0.210 HD
ENDBRANCH   8   9
ENDBRANCH   3   8
BRANCH   4  11
ATOM     11  O   UNL     1      18.889   9.454  29.179  1.00  0.00    -0.387 OA
ATOM     12  H   UNL     1      19.448   9.921  28.524  1.00  0.00    +0.211 HD
ENDBRANCH   4  11
BRANCH   6  13
ATOM     13  O   UNL     1      17.332   7.333  30.378  1.00  0.00    -0.387 OA
ATOM     14  H   UNL     1      18.116   7.136  30.928  1.00  0.00    +0.211 HD
ENDBRANCH   6  13
BRANCH   7  15
ATOM     15  O   UNL     1      16.603   5.291  28.549  1.00  0.00    -0.385 OA
ATOM     16  H   UNL     1      16.391   5.129  29.487  1.00  0.00    +0.211 HD
ENDBRANCH   7  15
ENDBRANCH   1   2
BRANCH   1  17
ATOM     17  C   UNL     1      19.055   3.559  26.881  1.00  0.00    +0.184 C 
ATOM     18  C   UNL     1      20.311   2.665  26.739  1.00  0.00    +0.178 C 
ATOM     19  C   UNL     1      18.114   3.292  25.687  1.00  0.00    +0.180 C 
ATOM     20  O   UNL     1      20.061   1.390  26.109  1.00  0.00    -0.342 OA
ATOM     21  C   UNL     1      17.706   1.805  25.643  1.00  0.00    +0.201 C 
ATOM     22  C   UNL     1      18.749   0.912  26.346  1.00  0.00    +0.279 C 
BRANCH  18  23
ATOM     23  C   UNL     1      20.985   2.422  28.097  1.00  0.00    +0.191 C 
BRANCH  23  24
ATOM     24  O   UNL     1      20.673   3.488  28.995  1.00  0.00    -0.394 OA
ATOM     25  H   UNL     1      21.363   4.168  28.872  1.00  0.00    +0.210 HD
ENDBRANCH  23  24
ENDBRANCH  18  23
BRANCH  19  26
ATOM     26  O   UNL     1      18.756   3.673  24.455  1.00  0.00    -0.387 OA
ATOM     27  H   UNL     1      18.726   4.644  24.380  1.00  0.00    +0.211 HD
ENDBRANCH  19  26
BRANCH  21  28
ATOM     28  O   UNL     1      16.439   1.620  26.292  1.00  0.00    -0.385 OA
ATOM     29  H   UNL     1      16.243   2.464  26.741  1.00  0.00    +0.211 HD
ENDBRANCH  21  28
BRANCH  22  30
ATOM     30  O   UNL     1      18.640  -0.404  25.825  1.00  0.00    -0.366 OA
ATOM     31  H   UNL     1      17.696  -0.534  25.640  1.00  0.00    +0.213 HD
ENDBRANCH  22  30
ENDBRANCH   1  17
TORSDOF 12
ENDMDL
MODEL 9
REMARK VINA RESULT:    -5.722      1.625      2.891
REMARK INTER + INTRA:          -9.402
REMARK INTER:                  -8.996
REMARK INTRA:                  -0.405
REMARK UNBOUND:                -1.003
REMARK SMILES OC[C@@H]1O[C@@H](O[C@H]2[C@@H](O)[C@H](O)[C@@H](O)O[C@@H]2CO)[C@H](O)[C@@H](O)[C@@H]1O
REMARK SMILES IDX 6 1 5 2 3 3 22 4 4 5 20 6 18 7 2 8 1 9 23 11 21 13 19 15
REMARK SMILES IDX 7 17 15 18 8 19 14 20 10 21 12 22 16 23 17 24 9 26 11 28
REMARK SMILES IDX 13 30
REMARK H PARENT 1 10 23 12 21 14 19 16 17 25 9 27 11 29 13 31
ROOT
ATOM      1  O   UNL     1       6.120 -16.484 -11.667  1.00  0.00    -0.341 OA
ENDROOT
BRANCH   1   2
ATOM      2  C   UNL     1       5.106 -15.483 -11.785  1.00  0.00    +0.282 C 
ATOM      3  C   UNL     1       6.240 -14.053 -13.328  1.00  0.00    +0.178 C 
ATOM      4  C   UNL     1       6.236 -12.826 -12.387  1.00  0.00    +0.177 C 
ATOM      5  O   UNL     1       5.087 -14.881 -13.075  1.00  0.00    -0.341 OA
ATOM      6  C   UNL     1       5.244 -13.018 -11.236  1.00  0.00    +0.179 C 
ATOM      7  C   UNL     1       5.326 -14.431 -10.667  1.00  0.00    +0.202 C 
BRANCH   3   8
ATOM      8  C   UNL     1       6.278 -13.709 -14.825  1.00  0.00    +0.191 C 
BRANCH   8   9
ATOM      9  O   UNL     1       7.608 -13.688 -15.346  1.00  0.00    -0.394 OA
ATOM     10  H   UNL     1       7.903 -14.623 -15.332  1.00  0.00    +0.210 HD
ENDBRANCH   8   9
ENDBRANCH   3   8
BRANCH   4  11
ATOM     11  O   UNL     1       5.895 -11.596 -13.050  1.00  0.00    -0.387 OA
ATOM     12  H   UNL     1       5.428 -11.064 -12.373  1.00  0.00    +0.211 HD
ENDBRANCH   4  11
BRANCH   6  13
ATOM     13  O   UNL     1       5.523 -12.043 -10.217  1.00  0.00    -0.387 OA
ATOM     14  H   UNL     1       6.445 -12.205  -9.934  1.00  0.00    +0.211 HD
ENDBRANCH   6  13
BRANCH   7  15
ATOM     15  O   UNL     1       4.350 -14.553  -9.612  1.00  0.00    -0.385 OA
ATOM     16  H   UNL     1       3.725 -15.259  -9.860  1.00  0.00    +0.211 HD
ENDBRANCH   7  15
ENDBRANCH   1   2
BRANCH   1  17
ATOM     17  C   UNL     1       6.363 -16.951 -10.333  1.00  0.00    +0.184 C 
ATOM     18  C   UNL     1       7.895 -16.918 -10.116  1.00  0.00    +0.178 C 
ATOM     19  C   UNL     1       5.849 -18.380 -10.059  1.00  0.00    +0.180 C 
ATOM     20  O   UNL     1       8.365 -17.820  -9.090  1.00  0.00    -0.342 OA
ATOM     21  C   UNL     1       6.190 -18.809  -8.617  1.00  0.00    +0.201 C 
ATOM     22  C   UNL     1       7.407 -18.034  -8.070  1.00  0.00    +0.279 C 
BRANCH  18  23
ATOM     23  C   UNL     1       8.388 -15.501  -9.792  1.00  0.00    +0.191 C 
BRANCH  23  24
ATOM     24  O   UNL     1       9.781 -15.526  -9.481  1.00  0.00    -0.394 OA
ATOM     25  H   UNL     1      10.253 -15.253 -10.291  1.00  0.00    +0.210 HD
ENDBRANCH  23  24
ENDBRANCH  18  23
BRANCH  19  26
ATOM     26  O   UNL     1       6.422 -19.303 -11.006  1.00  0.00    -0.387 OA
ATOM     27  H   UNL     1       7.382 -19.144 -11.047  1.00  0.00    +0.211 HD
ENDBRANCH  19  26
BRANCH  21  28
ATOM     28  O   UNL     1       5.071 -18.566  -7.751  1.00  0.00    -0.385 OA
ATOM     29  H   UNL     1       5.260 -17.721  -7.302  1.00  0.00    +0.211 HD
ENDBRANCH  21  28
BRANCH  22  30
ATOM     30  O   UNL     1       8.002 -18.802  -7.036  1.00  0.00    -0.366 OA
ATOM     31  H   UNL     1       8.622 -18.203  -6.590  1.00  0.00    +0.213 HD
ENDBRANCH  22  30
ENDBRANCH   1  17
TORSDOF 12
ENDMDL
