MODEL 1
REMARK VINA RESULT:    -8.327      0.000      0.000
REMARK INTER + INTRA:         -20.950
REMARK INTER:                 -18.064
REMARK INTRA:                  -2.886
REMARK UNBOUND:                -2.886
REMARK SMILES OC[C@@H]1O[C@H](O[C@H]2[C@@H]3OC[C@H]2O[C@@H](O[C@@H]2[C@H](O)[C@@H](O[C@@H]4[C@@H]5OC[C@H]4O[C@H](O[C@@H]4[C@@H](O)[C@H](O)O[C@@H](CO)[C@H]4O)[C@@H]5O)O[C@H](CO)[C@H]2O)[C@H]3O)[C@@H](O)[C@H](O[C@@H]2O[C@@H]3CO[C@H]([C@H]2O)[C@@H]3O)[C@H]1O
REMARK SMILES IDX 15 1 45 2 42 3 41 4 18 5 16 6 14 7 13 8 7 9 11 10 8 11 10 12
REMARK SMILES IDX 12 13 9 14 47 15 6 16 5 17 51 18 63 19 49 20 3 21 4 22 52 23
REMARK SMILES IDX 53 24 56 25 55 26 57 27 61 28 54 29 58 30 59 31 62 32 60 34
REMARK SMILES IDX 64 36 50 38 2 40 1 41 48 43 46 45 17 47 43 49 44 50 19 52
REMARK SMILES IDX 20 53 24 54 21 55 23 56 25 57 22 58 39 59 26 60 40 61 27 63
REMARK SMILES IDX 28 64 37 65 29 66 34 67 31 68 33 69 38 70 30 72 35 74 36 75
REMARK SMILES IDX 32 77
REMARK H PARENT 62 33 60 35 64 37 50 39 1 42 48 44 46 46 17 48 44 51 40 62
REMARK H PARENT 38 71 30 73 36 76 32 78
ROOT
ATOM      1  C   UNL     1      -4.843   8.844 -16.939  1.00  0.00    +0.186 C 
ATOM      2  C   UNL     1      -6.372   8.669 -16.831  1.00  0.00    +0.177 C 
ATOM      3  C   UNL     1      -7.105   9.093 -18.122  1.00  0.00    +0.178 C 
ATOM      4  O   UNL     1      -6.311   9.980 -18.913  1.00  0.00    -0.341 OA
ATOM      5  C   UNL     1      -5.123   9.359 -19.409  1.00  0.00    +0.282 C 
ATOM      6  C   UNL     1      -4.416   8.455 -18.361  1.00  0.00    +0.202 C 
ENDROOT
BRANCH   1   7
ATOM      7  O   UNL     1      -4.335  10.180 -16.706  1.00  0.00    -0.341 OA
BRANCH   7   8
ATOM      8  C   UNL     1      -3.896  10.412 -15.361  1.00  0.00    +0.282 C 
ATOM      9  C   UNL     1      -2.003  12.520 -14.607  1.00  0.00    +0.184 C 
ATOM     10  C   UNL     1      -3.306  12.772 -15.355  1.00  0.00    +0.179 C 
ATOM     11  C   UNL     1      -1.525  11.353 -15.468  1.00  0.00    +0.184 C 
ATOM     12  C   UNL     1      -2.830  12.722 -16.807  1.00  0.00    +0.195 C 
ATOM     13  O   UNL     1      -4.261  11.750 -14.989  1.00  0.00    -0.341 OA
ATOM     14  O   UNL     1      -1.744  11.767 -16.839  1.00  0.00    -0.370 OA
ATOM     15  C   UNL     1      -2.381  10.107 -15.194  1.00  0.00    +0.202 C 
BRANCH   9  16
ATOM     16  O   UNL     1      -2.154  12.132 -13.248  1.00  0.00    -0.341 OA
BRANCH  16  17
ATOM     17  C   UNL     1      -0.918  11.956 -12.529  1.00  0.00    +0.282 C 
ATOM     18  C   UNL     1       0.047  10.406 -10.716  1.00  0.00    +0.186 C 
ATOM     19  C   UNL     1       0.661  11.724 -10.218  1.00  0.00    +0.177 C 
ATOM     20  C   UNL     1      -1.060  10.626 -11.759  1.00  0.00    +0.202 C 
ATOM     21  C   UNL     1      -0.291  12.912 -10.365  1.00  0.00    +0.178 C 
ATOM     22  O   UNL     1      -0.703  13.106 -11.720  1.00  0.00    -0.341 OA
BRANCH  18  23
ATOM     23  O   UNL     1      -0.490   9.723  -9.561  1.00  0.00    -0.341 OA
BRANCH  23  24
ATOM     24  C   UNL     1       0.460   8.886  -8.887  1.00  0.00    +0.282 C 
ATOM     25  C   UNL     1      -1.998   8.132  -7.444  1.00  0.00    +0.195 C 
ATOM     26  C   UNL     1      -0.827   7.185  -7.699  1.00  0.00    +0.178 C 
ATOM     27  O   UNL     1      -1.463   9.225  -6.661  1.00  0.00    -0.370 OA
ATOM     28  C   UNL     1      -0.022   7.385  -6.430  1.00  0.00    +0.177 C 
ATOM     29  O   UNL     1      -0.028   7.533  -8.845  1.00  0.00    -0.341 OA
ATOM     30  C   UNL     1      -0.079   8.908  -6.395  1.00  0.00    +0.183 C 
ATOM     31  C   UNL     1       0.812   9.495  -7.500  1.00  0.00    +0.202 C 
BRANCH  28  32
ATOM     32  O   UNL     1       1.296   6.859  -6.498  1.00  0.00    -0.387 OA
ATOM     33  H   UNL     1       1.719   7.234  -7.293  1.00  0.00    +0.211 HD
ENDBRANCH  28  32
BRANCH  31  34
ATOM     34  O   UNL     1       2.197   9.264  -7.186  1.00  0.00    -0.385 OA
ATOM     35  H   UNL     1       2.698  10.024  -7.556  1.00  0.00    +0.211 HD
ENDBRANCH  31  34
ENDBRANCH  23  24
ENDBRANCH  18  23
BRANCH  19  36
ATOM     36  O   UNL     1       1.836  11.978 -11.010  1.00  0.00    -0.387 OA
ATOM     37  H   UNL     1       1.635  12.714 -11.617  1.00  0.00    +0.211 HD
ENDBRANCH  19  36
BRANCH  20  38
ATOM     38  O   UNL     1      -1.082   9.515 -12.678  1.00  0.00    -0.385 OA
ATOM     39  H   UNL     1      -0.868   8.720 -12.148  1.00  0.00    +0.211 HD
ENDBRANCH  20  38
BRANCH  21  40
ATOM     40  C   UNL     1      -1.519  12.881  -9.444  1.00  0.00    +0.191 C 
BRANCH  40  41
ATOM     41  O   UNL     1      -1.144  12.334  -8.172  1.00  0.00    -0.394 OA
ATOM     42  H   UNL     1      -0.607  11.537  -8.385  1.00  0.00    +0.210 HD
ENDBRANCH  40  41
ENDBRANCH  21  40
ENDBRANCH  16  17
ENDBRANCH   9  16
BRANCH  15  43
ATOM     43  O   UNL     1      -1.973   9.026 -16.042  1.00  0.00    -0.385 OA
ATOM     44  H   UNL     1      -1.722   9.454 -16.886  1.00  0.00    +0.211 HD
ENDBRANCH  15  43
ENDBRANCH   7   8
ENDBRANCH   1   7
BRANCH   2  45
ATOM     45  O   UNL     1      -6.670   7.289 -16.562  1.00  0.00    -0.387 OA
ATOM     46  H   UNL     1      -5.807   6.825 -16.550  1.00  0.00    +0.211 HD
ENDBRANCH   2  45
BRANCH   6  47
ATOM     47  O   UNL     1      -2.986   8.568 -18.488  1.00  0.00    -0.385 OA
ATOM     48  H   UNL     1      -2.817   8.722 -19.438  1.00  0.00    +0.211 HD
ENDBRANCH   6  47
BRANCH   3  49
ATOM     49  C   UNL     1      -8.431   9.792 -17.792  1.00  0.00    +0.191 C 
BRANCH  49  50
ATOM     50  O   UNL     1      -9.057   9.210 -16.652  1.00  0.00    -0.394 OA
ATOM     51  H   UNL     1      -9.489   9.948 -16.165  1.00  0.00    +0.210 HD
ENDBRANCH  49  50
ENDBRANCH   3  49
BRANCH   5  52
ATOM     52  O   UNL     1      -5.407   8.571 -20.571  1.00  0.00    -0.341 OA
BRANCH  52  53
ATOM     53  C   UNL     1      -4.524   7.459 -20.738  1.00  0.00    +0.184 C 
ATOM     54  C   UNL     1      -5.252   6.369 -21.507  1.00  0.00    +0.179 C 
ATOM     55  C   UNL     1      -3.410   7.701 -21.764  1.00  0.00    +0.184 C 
ATOM     56  C   UNL     1      -5.305   6.981 -22.909  1.00  0.00    +0.195 C 
ATOM     57  O   UNL     1      -4.488   5.142 -21.456  1.00  0.00    -0.341 OA
ATOM     58  O   UNL     1      -4.061   7.709 -23.064  1.00  0.00    -0.370 OA
ATOM     59  C   UNL     1      -2.441   6.514 -21.730  1.00  0.00    +0.202 C 
ATOM     60  C   UNL     1      -3.208   5.216 -22.094  1.00  0.00    +0.282 C 
BRANCH  59  61
ATOM     61  O   UNL     1      -1.841   6.413 -20.428  1.00  0.00    -0.385 OA
ATOM     62  H   UNL     1      -0.920   6.723 -20.539  1.00  0.00    +0.211 HD
ENDBRANCH  59  61
BRANCH  60  63
ATOM     63  O   UNL     1      -2.425   4.107 -21.634  1.00  0.00    -0.341 OA
BRANCH  63  64
ATOM     64  C   UNL     1      -2.086   3.158 -22.658  1.00  0.00    +0.186 C 
ATOM     65  C   UNL     1      -1.364   3.934 -23.781  1.00  0.00    +0.177 C 
ATOM     66  C   UNL     1      -1.186   1.996 -22.180  1.00  0.00    +0.202 C 
ATOM     67  C   UNL     1       0.043   4.364 -23.316  1.00  0.00    +0.178 C 
ATOM     68  C   UNL     1       0.220   2.519 -21.799  1.00  0.00    +0.279 C 
ATOM     69  O   UNL     1       0.807   3.226 -22.889  1.00  0.00    -0.342 OA
BRANCH  65  70
ATOM     70  O   UNL     1      -1.289   3.138 -24.974  1.00  0.00    -0.387 OA
ATOM     71  H   UNL     1      -1.972   3.485 -25.591  1.00  0.00    +0.211 HD
ENDBRANCH  65  70
BRANCH  66  72
ATOM     72  O   UNL     1      -1.097   1.034 -23.251  1.00  0.00    -0.385 OA
ATOM     73  H   UNL     1      -0.198   0.655 -23.230  1.00  0.00    +0.211 HD
ENDBRANCH  66  72
BRANCH  67  74
ATOM     74  C   UNL     1       0.831   5.093 -24.420  1.00  0.00    +0.191 C 
BRANCH  74  75
ATOM     75  O   UNL     1       1.268   4.236 -25.474  1.00  0.00    -0.394 OA
ATOM     76  H   UNL     1       0.536   4.194 -26.126  1.00  0.00    +0.210 HD
ENDBRANCH  74  75
ENDBRANCH  67  74
BRANCH  68  77
ATOM     77  O   UNL     1       0.244   3.295 -20.614  1.00  0.00    -0.366 OA
ATOM     78  H   UNL     1       0.864   2.881 -19.985  1.00  0.00    +0.213 HD
ENDBRANCH  68  77
ENDBRANCH  63  64
ENDBRANCH  60  63
ENDBRANCH  52  53
ENDBRANCH   5  52
TORSDOF 27
ENDMDL
MODEL 2
REMARK VINA RESULT:    -8.288     34.212     39.444
REMARK INTER + INTRA:         -20.864
REMARK INTER:                 -17.563
REMARK INTRA:                  -3.300
REMARK UNBOUND:                -2.886
REMARK SMILES OC[C@@H]1O[C@H](O[C@H]2[C@@H]3OC[C@H]2O[C@@H](O[C@@H]2[C@H](O)[C@@H](O[C@@H]4[C@@H]5OC[C@H]4O[C@H](O[C@@H]4[C@@H](O)[C@H](O)O[C@@H](CO)[C@H]4O)[C@@H]5O)O[C@H](CO)[C@H]2O)[C@H]3O)[C@@H](O)[C@H](O[C@@H]2O[C@@H]3CO[C@H]([C@H]2O)[C@@H]3O)[C@H]1O
REMARK SMILES IDX 15 1 45 2 42 3 41 4 18 5 16 6 14 7 13 8 7 9 11 10 8 11 10 12
REMARK SMILES IDX 12 13 9 14 47 15 6 16 5 17 51 18 63 19 49 20 3 21 4 22 52 23
REMARK SMILES IDX 53 24 56 25 55 26 57 27 61 28 54 29 58 30 59 31 62 32 60 34
REMARK SMILES IDX 64 36 50 38 2 40 1 41 48 43 46 45 17 47 43 49 44 50 19 52
REMARK SMILES IDX 20 53 24 54 21 55 23 56 25 57 22 58 39 59 26 60 40 61 27 63
REMARK SMILES IDX 28 64 37 65 29 66 34 67 31 68 33 69 38 70 30 72 35 74 36 75
REMARK SMILES IDX 32 77
REMARK H PARENT 62 33 60 35 64 37 50 39 1 42 48 44 46 46 17 48 44 51 40 62
REMARK H PARENT 38 71 30 73 36 76 32 78
ROOT
ATOM      1  C   UNL     1      -3.031  -2.017  23.518  1.00  0.00    +0.186 C 
ATOM      2  C   UNL     1      -3.183  -0.606  24.125  1.00  0.00    +0.177 C 
ATOM      3  C   UNL     1      -4.100   0.303  23.277  1.00  0.00    +0.178 C 
ATOM      4  O   UNL     1      -4.199  -0.159  21.929  1.00  0.00    -0.341 OA
ATOM      5  C   UNL     1      -4.836  -1.435  21.831  1.00  0.00    +0.282 C 
ATOM      6  C   UNL     1      -4.386  -2.435  22.932  1.00  0.00    +0.202 C 
ENDROOT
BRANCH   1   7
ATOM      7  O   UNL     1      -2.060  -2.151  22.452  1.00  0.00    -0.341 OA
BRANCH   7   8
ATOM      8  C   UNL     1      -1.100  -3.194  22.663  1.00  0.00    +0.282 C 
ATOM      9  C   UNL     1       1.799  -2.760  22.676  1.00  0.00    +0.184 C 
ATOM     10  C   UNL     1       0.823  -2.020  23.580  1.00  0.00    +0.179 C 
ATOM     11  C   UNL     1       1.018  -2.575  21.378  1.00  0.00    +0.184 C 
ATOM     12  C   UNL     1       0.536  -0.769  22.748  1.00  0.00    +0.195 C 
ATOM     13  O   UNL     1      -0.322  -2.866  23.825  1.00  0.00    -0.341 OA
ATOM     14  O   UNL     1       0.611  -1.184  21.365  1.00  0.00    -0.370 OA
ATOM     15  C   UNL     1      -0.245  -3.450  21.391  1.00  0.00    +0.202 C 
BRANCH   9  16
ATOM     16  O   UNL     1       1.977  -4.137  22.980  1.00  0.00    -0.341 OA
BRANCH  16  17
ATOM     17  C   UNL     1       3.233  -4.695  22.548  1.00  0.00    +0.282 C 
ATOM     18  C   UNL     1       5.668  -3.929  22.225  1.00  0.00    +0.186 C 
ATOM     19  C   UNL     1       5.551  -4.801  20.967  1.00  0.00    +0.177 C 
ATOM     20  C   UNL     1       4.304  -3.631  22.868  1.00  0.00    +0.202 C 
ATOM     21  C   UNL     1       4.183  -4.686  20.292  1.00  0.00    +0.178 C 
ATOM     22  O   UNL     1       3.118  -5.047  21.175  1.00  0.00    -0.341 OA
BRANCH  18  23
ATOM     23  O   UNL     1       6.310  -2.695  21.831  1.00  0.00    -0.341 OA
BRANCH  23  24
ATOM     24  C   UNL     1       7.563  -2.457  22.486  1.00  0.00    +0.282 C 
ATOM     25  C   UNL     1       5.901  -0.411  23.806  1.00  0.00    +0.195 C 
ATOM     26  C   UNL     1       7.070  -1.131  24.476  1.00  0.00    +0.178 C 
ATOM     27  O   UNL     1       6.461   0.285  22.667  1.00  0.00    -0.370 OA
ATOM     28  C   UNL     1       8.201  -0.165  24.179  1.00  0.00    +0.177 C 
ATOM     29  O   UNL     1       7.368  -2.421  23.912  1.00  0.00    -0.341 OA
ATOM     30  C   UNL     1       7.888   0.062  22.704  1.00  0.00    +0.183 C 
ATOM     31  C   UNL     1       8.241  -1.191  21.889  1.00  0.00    +0.202 C 
BRANCH  28  32
ATOM     32  O   UNL     1       9.494  -0.706  24.417  1.00  0.00    -0.387 OA
ATOM     33  H   UNL     1       9.375  -1.532  24.923  1.00  0.00    +0.211 HD
ENDBRANCH  28  32
BRANCH  31  34
ATOM     34  O   UNL     1       9.669  -1.359  21.845  1.00  0.00    -0.385 OA
ATOM     35  H   UNL     1      10.035  -0.537  21.451  1.00  0.00    +0.211 HD
ENDBRANCH  31  34
ENDBRANCH  23  24
ENDBRANCH  18  23
BRANCH  19  36
ATOM     36  O   UNL     1       5.749  -6.169  21.370  1.00  0.00    -0.387 OA
ATOM     37  H   UNL     1       4.913  -6.494  21.750  1.00  0.00    +0.211 HD
ENDBRANCH  19  36
BRANCH  20  38
ATOM     38  O   UNL     1       4.464  -3.493  24.294  1.00  0.00    -0.385 OA
ATOM     39  H   UNL     1       3.569  -3.596  24.679  1.00  0.00    +0.211 HD
ENDBRANCH  20  38
BRANCH  21  40
ATOM     40  C   UNL     1       3.888  -3.327  19.644  1.00  0.00    +0.191 C 
BRANCH  40  41
ATOM     41  O   UNL     1       3.744  -3.499  18.227  1.00  0.00    -0.394 OA
ATOM     42  H   UNL     1       3.416  -4.421  18.114  1.00  0.00    +0.210 HD
ENDBRANCH  40  41
ENDBRANCH  21  40
ENDBRANCH  16  17
ENDBRANCH   9  16
BRANCH  15  43
ATOM     43  O   UNL     1      -1.012  -3.235  20.199  1.00  0.00    -0.385 OA
ATOM     44  H   UNL     1      -0.584  -3.798  19.523  1.00  0.00    +0.211 HD
ENDBRANCH  15  43
ENDBRANCH   7   8
ENDBRANCH   1   7
BRANCH   2  45
ATOM     45  O   UNL     1      -3.739  -0.720  25.446  1.00  0.00    -0.387 OA
ATOM     46  H   UNL     1      -3.067  -0.345  26.053  1.00  0.00    +0.211 HD
ENDBRANCH   2  45
BRANCH   6  47
ATOM     47  O   UNL     1      -4.292  -3.766  22.389  1.00  0.00    -0.385 OA
ATOM     48  H   UNL     1      -5.104  -4.226  22.678  1.00  0.00    +0.211 HD
ENDBRANCH   6  47
BRANCH   3  49
ATOM     49  C   UNL     1      -3.573   1.744  23.259  1.00  0.00    +0.191 C 
BRANCH  49  50
ATOM     50  O   UNL     1      -4.360   2.577  22.411  1.00  0.00    -0.394 OA
ATOM     51  H   UNL     1      -5.294   2.290  22.530  1.00  0.00    +0.210 HD
ENDBRANCH  49  50
ENDBRANCH   3  49
BRANCH   5  52
ATOM     52  O   UNL     1      -6.260  -1.300  21.893  1.00  0.00    -0.341 OA
BRANCH  52  53
ATOM     53  C   UNL     1      -6.920  -1.612  20.663  1.00  0.00    +0.184 C 
ATOM     54  C   UNL     1      -7.264  -3.092  20.656  1.00  0.00    +0.179 C 
ATOM     55  C   UNL     1      -8.356  -1.083  20.580  1.00  0.00    +0.184 C 
ATOM     56  C   UNL     1      -8.402  -3.135  21.678  1.00  0.00    +0.195 C 
ATOM     57  O   UNL     1      -7.681  -3.489  19.330  1.00  0.00    -0.341 OA
ATOM     58  O   UNL     1      -9.134  -1.896  21.499  1.00  0.00    -0.370 OA
ATOM     59  C   UNL     1      -8.893  -1.332  19.165  1.00  0.00    +0.202 C 
ATOM     60  C   UNL     1      -8.882  -2.855  18.873  1.00  0.00    +0.282 C 
BRANCH  59  61
ATOM     61  O   UNL     1      -8.092  -0.616  18.209  1.00  0.00    -0.385 OA
ATOM     62  H   UNL     1      -7.591  -1.300  17.722  1.00  0.00    +0.211 HD
ENDBRANCH  59  61
BRANCH  60  63
ATOM     63  O   UNL     1      -8.953  -3.024  17.452  1.00  0.00    -0.341 OA
BRANCH  63  64
ATOM     64  C   UNL     1      -9.168  -4.380  17.028  1.00  0.00    +0.186 C 
ATOM     65  C   UNL     1     -10.672  -4.527  16.710  1.00  0.00    +0.177 C 
ATOM     66  C   UNL     1      -8.341  -4.801  15.792  1.00  0.00    +0.202 C 
ATOM     67  C   UNL     1     -11.023  -3.765  15.415  1.00  0.00    +0.178 C 
ATOM     68  C   UNL     1      -8.811  -4.031  14.535  1.00  0.00    +0.279 C 
ATOM     69  O   UNL     1     -10.209  -4.218  14.323  1.00  0.00    -0.342 OA
BRANCH  65  70
ATOM     70  O   UNL     1     -11.030  -5.914  16.602  1.00  0.00    -0.387 OA
ATOM     71  H   UNL     1     -11.062  -6.271  17.519  1.00  0.00    +0.211 HD
ENDBRANCH  65  70
BRANCH  66  72
ATOM     72  O   UNL     1      -8.509  -6.222  15.610  1.00  0.00    -0.385 OA
ATOM     73  H   UNL     1      -7.926  -6.494  14.875  1.00  0.00    +0.211 HD
ENDBRANCH  66  72
BRANCH  67  74
ATOM     74  C   UNL     1     -12.502  -3.927  15.019  1.00  0.00    +0.191 C 
BRANCH  74  75
ATOM     75  O   UNL     1     -12.821  -5.222  14.511  1.00  0.00    -0.394 OA
ATOM     76  H   UNL     1     -13.552  -5.570  15.064  1.00  0.00    +0.210 HD
ENDBRANCH  74  75
ENDBRANCH  67  74
BRANCH  68  77
ATOM     77  O   UNL     1      -8.474  -2.655  14.544  1.00  0.00    -0.366 OA
ATOM     78  H   UNL     1      -9.271  -2.142  14.779  1.00  0.00    +0.213 HD
ENDBRANCH  68  77
ENDBRANCH  63  64
ENDBRANCH  60  63
ENDBRANCH  52  53
ENDBRANCH   5  52
TORSDOF 27
ENDMDL
MODEL 3
REMARK VINA RESULT:    -8.240     38.130     41.381
REMARK INTER + INTRA:         -20.761
REMARK INTER:                 -17.429
REMARK INTRA:                  -3.332
REMARK UNBOUND:                -2.886
REMARK SMILES OC[C@@H]1O[C@H](O[C@H]2[C@@H]3OC[C@H]2O[C@@H](O[C@@H]2[C@H](O)[C@@H](O[C@@H]4[C@@H]5OC[C@H]4O[C@H](O[C@@H]4[C@@H](O)[C@H](O)O[C@@H](CO)[C@H]4O)[C@@H]5O)O[C@H](CO)[C@H]2O)[C@H]3O)[C@@H](O)[C@H](O[C@@H]2O[C@@H]3CO[C@H]([C@H]2O)[C@@H]3O)[C@H]1O
REMARK SMILES IDX 15 1 45 2 42 3 41 4 18 5 16 6 14 7 13 8 7 9 11 10 8 11 10 12
REMARK SMILES IDX 12 13 9 14 47 15 6 16 5 17 51 18 63 19 49 20 3 21 4 22 52 23
REMARK SMILES IDX 53 24 56 25 55 26 57 27 61 28 54 29 58 30 59 31 62 32 60 34
REMARK SMILES IDX 64 36 50 38 2 40 1 41 48 43 46 45 17 47 43 49 44 50 19 52
REMARK SMILES IDX 20 53 24 54 21 55 23 56 25 57 22 58 39 59 26 60 40 61 27 63
REMARK SMILES IDX 28 64 37 65 29 66 34 67 31 68 33 69 38 70 30 72 35 74 36 75
REMARK SMILES IDX 32 77
REMARK H PARENT 62 33 60 35 64 37 50 39 1 42 48 44 46 46 17 48 44 51 40 62
REMARK H PARENT 38 71 30 73 36 76 32 78
ROOT
ATOM      1  C   UNL     1       3.993  -2.797  21.115  1.00  0.00    +0.186 C 
ATOM      2  C   UNL     1       4.113  -4.331  20.998  1.00  0.00    +0.177 C 
ATOM      3  C   UNL     1       3.078  -5.071  21.874  1.00  0.00    +0.178 C 
ATOM      4  O   UNL     1       2.594  -4.241  22.931  1.00  0.00    -0.341 OA
ATOM      5  C   UNL     1       1.858  -3.114  22.452  1.00  0.00    +0.282 C 
ATOM      6  C   UNL     1       2.504  -2.439  21.209  1.00  0.00    +0.202 C 
ENDROOT
BRANCH   1   7
ATOM      7  O   UNL     1       4.637  -2.193  22.263  1.00  0.00    -0.341 OA
BRANCH   7   8
ATOM      8  C   UNL     1       5.473  -1.074  21.942  1.00  0.00    +0.282 C 
ATOM      9  C   UNL     1       8.167  -0.689  23.034  1.00  0.00    +0.184 C 
ATOM     10  C   UNL     1       7.724  -1.933  22.275  1.00  0.00    +0.179 C 
ATOM     11  C   UNL     1       6.960  -0.608  23.965  1.00  0.00    +0.184 C 
ATOM     12  C   UNL     1       7.278  -2.839  23.423  1.00  0.00    +0.195 C 
ATOM     13  O   UNL     1       6.682  -1.567  21.344  1.00  0.00    -0.341 OA
ATOM     14  O   UNL     1       6.746  -1.960  24.442  1.00  0.00    -0.370 OA
ATOM     15  C   UNL     1       5.714  -0.167  23.181  1.00  0.00    +0.202 C 
BRANCH   9  16
ATOM     16  O   UNL     1       8.290   0.487  22.245  1.00  0.00    -0.341 OA
BRANCH  16  17
ATOM     17  C   UNL     1       9.423   1.316  22.566  1.00  0.00    +0.282 C 
ATOM     18  C   UNL     1      11.923   1.469  21.978  1.00  0.00    +0.186 C 
ATOM     19  C   UNL     1      12.036   1.800  23.473  1.00  0.00    +0.177 C 
ATOM     20  C   UNL     1      10.550   0.890  21.602  1.00  0.00    +0.202 C 
ATOM     21  C   UNL     1      11.079   0.976  24.336  1.00  0.00    +0.178 C 
ATOM     22  O   UNL     1       9.715   1.159  23.949  1.00  0.00    -0.341 OA
BRANCH  18  23
ATOM     23  O   UNL     1      12.963   0.512  21.672  1.00  0.00    -0.341 OA
BRANCH  23  24
ATOM     24  C   UNL     1      12.514  -0.606  20.896  1.00  0.00    +0.282 C 
ATOM     25  C   UNL     1      15.330  -1.372  21.311  1.00  0.00    +0.195 C 
ATOM     26  C   UNL     1      14.179  -2.368  21.180  1.00  0.00    +0.178 C 
ATOM     27  O   UNL     1      15.357  -0.629  20.070  1.00  0.00    -0.370 OA
ATOM     28  C   UNL     1      14.218  -2.647  19.690  1.00  0.00    +0.177 C 
ATOM     29  O   UNL     1      12.894  -1.833  21.544  1.00  0.00    -0.341 OA
ATOM     30  C   UNL     1      14.340  -1.202  19.219  1.00  0.00    +0.183 C 
ATOM     31  C   UNL     1      13.009  -0.464  19.428  1.00  0.00    +0.202 C 
BRANCH  28  32
ATOM     32  O   UNL     1      13.063  -3.317  19.202  1.00  0.00    -0.387 OA
ATOM     33  H   UNL     1      13.144  -4.257  19.453  1.00  0.00    +0.211 HD
ENDBRANCH  28  32
BRANCH  31  34
ATOM     34  O   UNL     1      12.021  -0.970  18.513  1.00  0.00    -0.385 OA
ATOM     35  H   UNL     1      11.377  -1.482  19.052  1.00  0.00    +0.211 HD
ENDBRANCH  31  34
ENDBRANCH  23  24
ENDBRANCH  18  23
BRANCH  19  36
ATOM     36  O   UNL     1      11.710   3.194  23.632  1.00  0.00    -0.387 OA
ATOM     37  H   UNL     1      12.544   3.697  23.651  1.00  0.00    +0.211 HD
ENDBRANCH  19  36
BRANCH  20  38
ATOM     38  O   UNL     1      10.222   1.268  20.250  1.00  0.00    -0.385 OA
ATOM     39  H   UNL     1       9.563   0.613  19.937  1.00  0.00    +0.211 HD
ENDBRANCH  20  38
BRANCH  21  40
ATOM     40  C   UNL     1      11.403  -0.523  24.419  1.00  0.00    +0.191 C 
BRANCH  40  41
ATOM     41  O   UNL     1      12.826  -0.701  24.404  1.00  0.00    -0.394 OA
ATOM     42  H   UNL     1      13.104  -0.469  23.489  1.00  0.00    +0.210 HD
ENDBRANCH  40  41
ENDBRANCH  21  40
ENDBRANCH  16  17
ENDBRANCH   9  16
BRANCH  15  43
ATOM     43  O   UNL     1       4.567  -0.147  24.040  1.00  0.00    -0.385 OA
ATOM     44  H   UNL     1       4.394   0.802  24.201  1.00  0.00    +0.211 HD
ENDBRANCH  15  43
ENDBRANCH   7   8
ENDBRANCH   1   7
BRANCH   2  45
ATOM     45  O   UNL     1       3.917  -4.715  19.627  1.00  0.00    -0.387 OA
ATOM     46  H   UNL     1       4.706  -5.240  19.379  1.00  0.00    +0.211 HD
ENDBRANCH   2  45
BRANCH   6  47
ATOM     47  O   UNL     1       2.350  -1.009  21.281  1.00  0.00    -0.385 OA
ATOM     48  H   UNL     1       1.626  -0.854  21.917  1.00  0.00    +0.211 HD
ENDBRANCH   6  47
BRANCH   3  49
ATOM     49  C   UNL     1       3.690  -6.336  22.491  1.00  0.00    +0.191 C 
BRANCH  49  50
ATOM     50  O   UNL     1       4.991  -6.593  21.969  1.00  0.00    -0.394 OA
ATOM     51  H   UNL     1       4.951  -6.388  21.007  1.00  0.00    +0.210 HD
ENDBRANCH  49  50
ENDBRANCH   3  49
BRANCH   5  52
ATOM     52  O   UNL     1       0.515  -3.484  22.121  1.00  0.00    -0.341 OA
BRANCH  52  53
ATOM     53  C   UNL     1      -0.418  -2.405  22.224  1.00  0.00    +0.184 C 
ATOM     54  C   UNL     1      -1.827  -2.971  22.161  1.00  0.00    +0.179 C 
ATOM     55  C   UNL     1      -0.519  -1.805  23.631  1.00  0.00    +0.184 C 
ATOM     56  C   UNL     1      -1.934  -3.650  23.528  1.00  0.00    +0.195 C 
ATOM     57  O   UNL     1      -2.778  -1.895  21.990  1.00  0.00    -0.341 OA
ATOM     58  O   UNL     1      -1.193  -2.804  24.443  1.00  0.00    -0.370 OA
ATOM     59  C   UNL     1      -1.414  -0.562  23.575  1.00  0.00    +0.202 C 
ATOM     60  C   UNL     1      -2.828  -0.970  23.083  1.00  0.00    +0.282 C 
BRANCH  59  61
ATOM     61  O   UNL     1      -0.828   0.421  22.706  1.00  0.00    -0.385 OA
ATOM     62  H   UNL     1      -0.482  -0.079  21.940  1.00  0.00    +0.211 HD
ENDBRANCH  59  61
BRANCH  60  63
ATOM     63  O   UNL     1      -3.486   0.217  22.623  1.00  0.00    -0.341 OA
BRANCH  63  64
ATOM     64  C   UNL     1      -4.131   0.974  23.660  1.00  0.00    +0.186 C 
ATOM     65  C   UNL     1      -4.577   2.315  23.038  1.00  0.00    +0.177 C 
ATOM     66  C   UNL     1      -5.355   0.274  24.294  1.00  0.00    +0.202 C 
ATOM     67  C   UNL     1      -5.758   2.091  22.071  1.00  0.00    +0.178 C 
ATOM     68  C   UNL     1      -6.506   0.156  23.267  1.00  0.00    +0.279 C 
ATOM     69  O   UNL     1      -6.846   1.436  22.741  1.00  0.00    -0.342 OA
BRANCH  65  70
ATOM     70  O   UNL     1      -4.926   3.255  24.066  1.00  0.00    -0.387 OA
ATOM     71  H   UNL     1      -5.723   3.738  23.749  1.00  0.00    +0.211 HD
ENDBRANCH  65  70
BRANCH  66  72
ATOM     72  O   UNL     1      -5.769   1.053  25.435  1.00  0.00    -0.385 OA
ATOM     73  H   UNL     1      -5.862   1.979  25.138  1.00  0.00    +0.211 HD
ENDBRANCH  66  72
BRANCH  67  74
ATOM     74  C   UNL     1      -6.281   3.406  21.465  1.00  0.00    +0.191 C 
BRANCH  74  75
ATOM     75  O   UNL     1      -5.864   3.623  20.117  1.00  0.00    -0.394 OA
ATOM     76  H   UNL     1      -6.589   4.112  19.673  1.00  0.00    +0.210 HD
ENDBRANCH  74  75
ENDBRANCH  67  74
BRANCH  68  77
ATOM     77  O   UNL     1      -6.257  -0.775  22.228  1.00  0.00    -0.366 OA
ATOM     78  H   UNL     1      -5.369  -1.156  22.359  1.00  0.00    +0.213 HD
ENDBRANCH  68  77
ENDBRANCH  63  64
ENDBRANCH  60  63
ENDBRANCH  52  53
ENDBRANCH   5  52
TORSDOF 27
ENDMDL
MODEL 4
REMARK VINA RESULT:    -8.228      2.107      4.418
REMARK INTER + INTRA:         -20.734
REMARK INTER:                 -17.094
REMARK INTRA:                  -3.640
REMARK UNBOUND:                -2.886
REMARK SMILES OC[C@@H]1O[C@H](O[C@H]2[C@@H]3OC[C@H]2O[C@@H](O[C@@H]2[C@H](O)[C@@H](O[C@@H]4[C@@H]5OC[C@H]4O[C@H](O[C@@H]4[C@@H](O)[C@H](O)O[C@@H](CO)[C@H]4O)[C@@H]5O)O[C@H](CO)[C@H]2O)[C@H]3O)[C@@H](O)[C@H](O[C@@H]2O[C@@H]3CO[C@H]([C@H]2O)[C@@H]3O)[C@H]1O
REMARK SMILES IDX 15 1 45 2 42 3 41 4 18 5 16 6 14 7 13 8 7 9 11 10 8 11 10 12
REMARK SMILES IDX 12 13 9 14 47 15 6 16 5 17 51 18 63 19 49 20 3 21 4 22 52 23
REMARK SMILES IDX 53 24 56 25 55 26 57 27 61 28 54 29 58 30 59 31 62 32 60 34
REMARK SMILES IDX 64 36 50 38 2 40 1 41 48 43 46 45 17 47 43 49 44 50 19 52
REMARK SMILES IDX 20 53 24 54 21 55 23 56 25 57 22 58 39 59 26 60 40 61 27 63
REMARK SMILES IDX 28 64 37 65 29 66 34 67 31 68 33 69 38 70 30 72 35 74 36 75
REMARK SMILES IDX 32 77
REMARK H PARENT 62 33 60 35 64 37 50 39 1 42 48 44 46 46 17 48 44 51 40 62
REMARK H PARENT 38 71 30 73 36 76 32 78
ROOT
ATOM      1  C   UNL     1      -1.671  11.573 -14.827  1.00  0.00    +0.186 C 
ATOM      2  C   UNL     1      -2.536  10.304 -14.979  1.00  0.00    +0.177 C 
ATOM      3  C   UNL     1      -3.709  10.508 -15.963  1.00  0.00    +0.178 C 
ATOM      4  O   UNL     1      -4.027  11.891 -16.126  1.00  0.00    -0.341 OA
ATOM      5  C   UNL     1      -2.967  12.630 -16.736  1.00  0.00    +0.282 C 
ATOM      6  C   UNL     1      -1.559  12.245 -16.202  1.00  0.00    +0.202 C 
ENDROOT
BRANCH   1   7
ATOM      7  O   UNL     1      -2.170  12.580 -13.914  1.00  0.00    -0.341 OA
BRANCH   7   8
ATOM      8  C   UNL     1      -1.274  12.890 -12.838  1.00  0.00    +0.282 C 
ATOM      9  C   UNL     1      -2.083  14.309 -10.404  1.00  0.00    +0.184 C 
ATOM     10  C   UNL     1      -2.738  13.027 -10.900  1.00  0.00    +0.179 C 
ATOM     11  C   UNL     1      -2.093  15.045 -11.741  1.00  0.00    +0.184 C 
ATOM     12  C   UNL     1      -3.893  13.586 -11.732  1.00  0.00    +0.195 C 
ATOM     13  O   UNL     1      -1.764  12.261 -11.644  1.00  0.00    -0.341 OA
ATOM     14  O   UNL     1      -3.416  14.831 -12.292  1.00  0.00    -0.370 OA
ATOM     15  C   UNL     1      -1.063  14.423 -12.696  1.00  0.00    +0.202 C 
BRANCH   9  16
ATOM     16  O   UNL     1      -0.760  14.157  -9.907  1.00  0.00    -0.341 OA
BRANCH  16  17
ATOM     17  C   UNL     1      -0.670  13.897  -8.493  1.00  0.00    +0.282 C 
ATOM     18  C   UNL     1      -0.438  11.874  -6.920  1.00  0.00    +0.186 C 
ATOM     19  C   UNL     1      -1.442  12.681  -6.083  1.00  0.00    +0.177 C 
ATOM     20  C   UNL     1      -0.305  12.404  -8.357  1.00  0.00    +0.202 C 
ATOM     21  C   UNL     1      -2.492  13.390  -6.940  1.00  0.00    +0.178 C 
ATOM     22  O   UNL     1      -1.898  14.280  -7.888  1.00  0.00    -0.341 OA
BRANCH  18  23
ATOM     23  O   UNL     1      -0.900  10.505  -6.939  1.00  0.00    -0.341 OA
BRANCH  23  24
ATOM     24  C   UNL     1       0.148   9.537  -6.798  1.00  0.00    +0.282 C 
ATOM     25  C   UNL     1      -0.744   8.927  -9.541  1.00  0.00    +0.195 C 
ATOM     26  C   UNL     1       0.693   8.765  -9.050  1.00  0.00    +0.178 C 
ATOM     27  O   UNL     1      -1.548   8.051  -8.716  1.00  0.00    -0.370 OA
ATOM     28  C   UNL     1       0.679   7.312  -8.614  1.00  0.00    +0.177 C 
ATOM     29  O   UNL     1       1.031   9.607  -7.932  1.00  0.00    -0.341 OA
ATOM     30  C   UNL     1      -0.637   7.348  -7.844  1.00  0.00    +0.183 C 
ATOM     31  C   UNL     1      -0.462   8.130  -6.534  1.00  0.00    +0.202 C 
BRANCH  28  32
ATOM     32  O   UNL     1       1.799   6.940  -7.824  1.00  0.00    -0.387 OA
ATOM     33  H   UNL     1       2.456   7.659  -7.892  1.00  0.00    +0.211 HD
ENDBRANCH  28  32
BRANCH  31  34
ATOM     34  O   UNL     1       0.369   7.384  -5.627  1.00  0.00    -0.385 OA
ATOM     35  H   UNL     1       0.627   8.005  -4.909  1.00  0.00    +0.211 HD
ENDBRANCH  31  34
ENDBRANCH  23  24
ENDBRANCH  18  23
BRANCH  19  36
ATOM     36  O   UNL     1      -0.697  13.675  -5.356  1.00  0.00    -0.387 OA
ATOM     37  H   UNL     1       0.143  13.826  -5.828  1.00  0.00    +0.211 HD
ENDBRANCH  19  36
BRANCH  20  38
ATOM     38  O   UNL     1       1.035  12.170  -8.834  1.00  0.00    -0.385 OA
ATOM     39  H   UNL     1       0.949  11.927  -9.779  1.00  0.00    +0.211 HD
ENDBRANCH  20  38
BRANCH  21  40
ATOM     40  C   UNL     1      -3.491  12.463  -7.647  1.00  0.00    +0.191 C 
BRANCH  40  41
ATOM     41  O   UNL     1      -3.715  11.301  -6.835  1.00  0.00    -0.394 OA
ATOM     42  H   UNL     1      -4.303  11.608  -6.107  1.00  0.00    +0.210 HD
ENDBRANCH  40  41
ENDBRANCH  21  40
ENDBRANCH  16  17
ENDBRANCH   9  16
BRANCH  15  43
ATOM     43  O   UNL     1      -1.110  15.074 -13.972  1.00  0.00    -0.385 OA
ATOM     44  H   UNL     1      -0.367  14.685 -14.476  1.00  0.00    +0.211 HD
ENDBRANCH  15  43
ENDBRANCH   7   8
ENDBRANCH   1   7
BRANCH   2  45
ATOM     45  O   UNL     1      -1.713   9.228 -15.458  1.00  0.00    -0.387 OA
ATOM     46  H   UNL     1      -1.068   9.045 -14.744  1.00  0.00    +0.211 HD
ENDBRANCH   2  45
BRANCH   6  47
ATOM     47  O   UNL     1      -0.724  13.414 -16.106  1.00  0.00    -0.385 OA
ATOM     48  H   UNL     1      -1.173  14.102 -16.634  1.00  0.00    +0.211 HD
ENDBRANCH   6  47
BRANCH   3  49
ATOM     49  C   UNL     1      -4.966   9.775 -15.473  1.00  0.00    +0.191 C 
BRANCH  49  50
ATOM     50  O   UNL     1      -5.142   8.533 -16.150  1.00  0.00    -0.394 OA
ATOM     51  H   UNL     1      -5.147   8.740 -17.112  1.00  0.00    +0.210 HD
ENDBRANCH  49  50
ENDBRANCH   3  49
BRANCH   5  52
ATOM     52  O   UNL     1      -2.977  12.457 -18.158  1.00  0.00    -0.341 OA
BRANCH  52  53
ATOM     53  C   UNL     1      -2.446  11.200 -18.585  1.00  0.00    +0.184 C 
ATOM     54  C   UNL     1      -3.195  10.750 -19.828  1.00  0.00    +0.179 C 
ATOM     55  C   UNL     1      -1.057  11.301 -19.227  1.00  0.00    +0.184 C 
ATOM     56  C   UNL     1      -2.649  11.728 -20.871  1.00  0.00    +0.195 C 
ATOM     57  O   UNL     1      -2.870   9.373 -20.122  1.00  0.00    -0.341 OA
ATOM     58  O   UNL     1      -1.260  11.943 -20.516  1.00  0.00    -0.370 OA
ATOM     59  C   UNL     1      -0.529   9.885 -19.486  1.00  0.00    +0.202 C 
ATOM     60  C   UNL     1      -1.494   9.146 -20.450  1.00  0.00    +0.282 C 
BRANCH  59  61
ATOM     61  O   UNL     1      -0.399   9.179 -18.241  1.00  0.00    -0.385 OA
ATOM     62  H   UNL     1       0.241   8.460 -18.412  1.00  0.00    +0.211 HD
ENDBRANCH  59  61
BRANCH  60  63
ATOM     63  O   UNL     1      -1.239   7.741 -20.324  1.00  0.00    -0.341 OA
BRANCH  63  64
ATOM     64  C   UNL     1      -1.259   7.024 -21.569  1.00  0.00    +0.186 C 
ATOM     65  C   UNL     1      -0.738   5.598 -21.284  1.00  0.00    +0.177 C 
ATOM     66  C   UNL     1      -2.652   6.935 -22.233  1.00  0.00    +0.202 C 
ATOM     67  C   UNL     1      -1.782   4.798 -20.477  1.00  0.00    +0.178 C 
ATOM     68  C   UNL     1      -3.604   6.060 -21.383  1.00  0.00    +0.279 C 
ATOM     69  O   UNL     1      -3.042   4.769 -21.165  1.00  0.00    -0.342 OA
BRANCH  65  70
ATOM     70  O   UNL     1      -0.414   4.927 -22.512  1.00  0.00    -0.387 OA
ATOM     71  H   UNL     1      -1.120   4.259 -22.665  1.00  0.00    +0.211 HD
ENDBRANCH  65  70
BRANCH  66  72
ATOM     72  O   UNL     1      -2.481   6.370 -23.549  1.00  0.00    -0.385 OA
ATOM     73  H   UNL     1      -1.523   6.350 -23.736  1.00  0.00    +0.211 HD
ENDBRANCH  66  72
BRANCH  67  74
ATOM     74  C   UNL     1      -1.337   3.347 -20.215  1.00  0.00    +0.191 C 
BRANCH  74  75
ATOM     75  O   UNL     1       0.075   3.157 -20.293  1.00  0.00    -0.394 OA
ATOM     76  H   UNL     1       0.420   3.225 -19.378  1.00  0.00    +0.210 HD
ENDBRANCH  74  75
ENDBRANCH  67  74
BRANCH  68  77
ATOM     77  O   UNL     1      -4.000   6.659 -20.161  1.00  0.00    -0.366 OA
ATOM     78  H   UNL     1      -4.900   6.351 -19.942  1.00  0.00    +0.213 HD
ENDBRANCH  68  77
ENDBRANCH  63  64
ENDBRANCH  60  63
ENDBRANCH  52  53
ENDBRANCH   5  52
TORSDOF 27
ENDMDL
MODEL 5
REMARK VINA RESULT:    -8.092     35.627     40.548
REMARK INTER + INTRA:         -20.438
REMARK INTER:                 -17.412
REMARK INTRA:                  -3.026
REMARK UNBOUND:                -2.886
REMARK SMILES OC[C@@H]1O[C@H](O[C@H]2[C@@H]3OC[C@H]2O[C@@H](O[C@@H]2[C@H](O)[C@@H](O[C@@H]4[C@@H]5OC[C@H]4O[C@H](O[C@@H]4[C@@H](O)[C@H](O)O[C@@H](CO)[C@H]4O)[C@@H]5O)O[C@H](CO)[C@H]2O)[C@H]3O)[C@@H](O)[C@H](O[C@@H]2O[C@@H]3CO[C@H]([C@H]2O)[C@@H]3O)[C@H]1O
REMARK SMILES IDX 15 1 45 2 42 3 41 4 18 5 16 6 14 7 13 8 7 9 11 10 8 11 10 12
REMARK SMILES IDX 12 13 9 14 47 15 6 16 5 17 51 18 63 19 49 20 3 21 4 22 52 23
REMARK SMILES IDX 53 24 56 25 55 26 57 27 61 28 54 29 58 30 59 31 62 32 60 34
REMARK SMILES IDX 64 36 50 38 2 40 1 41 48 43 46 45 17 47 43 49 44 50 19 52
REMARK SMILES IDX 20 53 24 54 21 55 23 56 25 57 22 58 39 59 26 60 40 61 27 63
REMARK SMILES IDX 28 64 37 65 29 66 34 67 31 68 33 69 38 70 30 72 35 74 36 75
REMARK SMILES IDX 32 77
REMARK H PARENT 62 33 60 35 64 37 50 39 1 42 48 44 46 46 17 48 44 51 40 62
REMARK H PARENT 38 71 30 73 36 76 32 78
ROOT
ATOM      1  C   UNL     1      11.990   0.499  21.692  1.00  0.00    +0.186 C 
ATOM      2  C   UNL     1      12.439   1.107  23.036  1.00  0.00    +0.177 C 
ATOM      3  C   UNL     1      13.796   0.542  23.513  1.00  0.00    +0.178 C 
ATOM      4  O   UNL     1      14.086  -0.717  22.904  1.00  0.00    -0.341 OA
ATOM      5  C   UNL     1      14.261  -0.616  21.489  1.00  0.00    +0.282 C 
ATOM      6  C   UNL     1      13.230   0.326  20.806  1.00  0.00    +0.202 C 
ENDROOT
BRANCH   1   7
ATOM      7  O   UNL     1      11.347  -0.797  21.761  1.00  0.00    -0.341 OA
BRANCH   7   8
ATOM      8  C   UNL     1       9.914  -0.739  21.772  1.00  0.00    +0.282 C 
ATOM      9  C   UNL     1       8.188  -3.075  21.375  1.00  0.00    +0.184 C 
ATOM     10  C   UNL     1       9.260  -2.982  22.451  1.00  0.00    +0.179 C 
ATOM     11  C   UNL     1       9.049  -2.571  20.219  1.00  0.00    +0.184 C 
ATOM     12  C   UNL     1      10.455  -3.615  21.737  1.00  0.00    +0.195 C 
ATOM     13  O   UNL     1       9.434  -1.596  22.820  1.00  0.00    -0.341 OA
ATOM     14  O   UNL     1      10.309  -3.277  20.338  1.00  0.00    -0.370 OA
ATOM     15  C   UNL     1       9.318  -1.067  20.375  1.00  0.00    +0.202 C 
BRANCH   9  16
ATOM     16  O   UNL     1       7.056  -2.239  21.577  1.00  0.00    -0.341 OA
BRANCH  16  17
ATOM     17  C   UNL     1       5.900  -2.584  20.790  1.00  0.00    +0.282 C 
ATOM     18  C   UNL     1       3.354  -2.795  21.101  1.00  0.00    +0.186 C 
ATOM     19  C   UNL     1       3.563  -4.031  20.213  1.00  0.00    +0.177 C 
ATOM     20  C   UNL     1       4.673  -2.239  21.660  1.00  0.00    +0.202 C 
ATOM     21  C   UNL     1       4.854  -4.783  20.540  1.00  0.00    +0.178 C 
ATOM     22  O   UNL     1       6.009  -3.950  20.408  1.00  0.00    -0.341 OA
BRANCH  18  23
ATOM     23  O   UNL     1       2.485  -3.191  22.186  1.00  0.00    -0.341 OA
BRANCH  23  24
ATOM     24  C   UNL     1       1.826  -2.093  22.831  1.00  0.00    +0.282 C 
ATOM     25  C   UNL     1      -0.126  -4.240  23.354  1.00  0.00    +0.195 C 
ATOM     26  C   UNL     1       0.126  -3.061  24.292  1.00  0.00    +0.178 C 
ATOM     27  O   UNL     1      -0.576  -3.665  22.104  1.00  0.00    -0.370 OA
ATOM     28  C   UNL     1      -0.927  -2.084  23.806  1.00  0.00    +0.177 C 
ATOM     29  O   UNL     1       1.434  -2.475  24.162  1.00  0.00    -0.341 OA
ATOM     30  C   UNL     1      -0.666  -2.238  22.311  1.00  0.00    +0.183 C 
ATOM     31  C   UNL     1       0.666  -1.572  21.936  1.00  0.00    +0.202 C 
BRANCH  28  32
ATOM     32  O   UNL     1      -0.747  -0.760  24.289  1.00  0.00    -0.387 OA
ATOM     33  H   UNL     1      -1.119  -0.726  25.191  1.00  0.00    +0.211 HD
ENDBRANCH  28  32
BRANCH  31  34
ATOM     34  O   UNL     1       0.546  -0.142  22.049  1.00  0.00    -0.385 OA
ATOM     35  H   UNL     1       1.138   0.129  22.786  1.00  0.00    +0.211 HD
ENDBRANCH  31  34
ENDBRANCH  23  24
ENDBRANCH  18  23
BRANCH  19  36
ATOM     36  O   UNL     1       3.632  -3.575  18.849  1.00  0.00    -0.387 OA
ATOM     37  H   UNL     1       2.811  -3.847  18.400  1.00  0.00    +0.211 HD
ENDBRANCH  19  36
BRANCH  20  38
ATOM     38  O   UNL     1       4.562  -0.810  21.825  1.00  0.00    -0.385 OA
ATOM     39  H   UNL     1       3.642  -0.580  21.582  1.00  0.00    +0.211 HD
ENDBRANCH  20  38
BRANCH  21  40
ATOM     40  C   UNL     1       4.871  -5.488  21.903  1.00  0.00    +0.191 C 
BRANCH  40  41
ATOM     41  O   UNL     1       3.623  -6.169  22.100  1.00  0.00    -0.394 OA
ATOM     42  H   UNL     1       3.196  -6.181  21.212  1.00  0.00    +0.210 HD
ENDBRANCH  40  41
ENDBRANCH  21  40
ENDBRANCH  16  17
ENDBRANCH   9  16
BRANCH  15  43
ATOM     43  O   UNL     1      10.175  -0.603  19.324  1.00  0.00    -0.385 OA
ATOM     44  H   UNL     1       9.754   0.221  19.005  1.00  0.00    +0.211 HD
ENDBRANCH  15  43
ENDBRANCH   7   8
ENDBRANCH   1   7
BRANCH   2  45
ATOM     45  O   UNL     1      12.557   2.532  22.893  1.00  0.00    -0.387 OA
ATOM     46  H   UNL     1      13.241   2.811  23.537  1.00  0.00    +0.211 HD
ENDBRANCH   2  45
BRANCH   6  47
ATOM     47  O   UNL     1      12.843  -0.205  19.524  1.00  0.00    -0.385 OA
ATOM     48  H   UNL     1      13.180  -1.121  19.505  1.00  0.00    +0.211 HD
ENDBRANCH   6  47
BRANCH   3  49
ATOM     49  C   UNL     1      13.805   0.358  25.037  1.00  0.00    +0.191 C 
BRANCH  49  50
ATOM     50  O   UNL     1      13.589   1.595  25.712  1.00  0.00    -0.394 OA
ATOM     51  H   UNL     1      14.447   2.076  25.692  1.00  0.00    +0.210 HD
ENDBRANCH  49  50
ENDBRANCH   3  49
BRANCH   5  52
ATOM     52  O   UNL     1      15.579  -0.154  21.171  1.00  0.00    -0.341 OA
BRANCH  52  53
ATOM     53  C   UNL     1      15.719   0.291  19.819  1.00  0.00    +0.184 C 
ATOM     54  C   UNL     1      17.005   1.091  19.699  1.00  0.00    +0.179 C 
ATOM     55  C   UNL     1      16.097  -0.824  18.836  1.00  0.00    +0.184 C 
ATOM     56  C   UNL     1      18.054  -0.019  19.807  1.00  0.00    +0.195 C 
ATOM     57  O   UNL     1      17.038   1.775  18.426  1.00  0.00    -0.341 OA
ATOM     58  O   UNL     1      17.478  -1.167  19.136  1.00  0.00    -0.370 OA
ATOM     59  C   UNL     1      16.052  -0.262  17.411  1.00  0.00    +0.202 C 
ATOM     60  C   UNL     1      17.067   0.905  17.287  1.00  0.00    +0.282 C 
BRANCH  59  61
ATOM     61  O   UNL     1      14.719   0.177  17.103  1.00  0.00    -0.385 OA
ATOM     62  H   UNL     1      14.403  -0.419  16.395  1.00  0.00    +0.211 HD
ENDBRANCH  59  61
BRANCH  60  63
ATOM     63  O   UNL     1      16.701   1.677  16.137  1.00  0.00    -0.341 OA
BRANCH  63  64
ATOM     64  C   UNL     1      17.643   1.607  15.054  1.00  0.00    +0.186 C 
ATOM     65  C   UNL     1      17.409   0.264  14.330  1.00  0.00    +0.177 C 
ATOM     66  C   UNL     1      17.530   2.763  14.034  1.00  0.00    +0.202 C 
ATOM     67  C   UNL     1      16.080   0.300  13.548  1.00  0.00    +0.178 C 
ATOM     68  C   UNL     1      16.195   2.675  13.257  1.00  0.00    +0.279 C 
ATOM     69  O   UNL     1      16.062   1.402  12.628  1.00  0.00    -0.342 OA
BRANCH  65  70
ATOM     70  O   UNL     1      18.510  -0.035  13.457  1.00  0.00    -0.387 OA
ATOM     71  H   UNL     1      18.840  -0.927  13.711  1.00  0.00    +0.211 HD
ENDBRANCH  65  70
BRANCH  66  72
ATOM     72  O   UNL     1      18.651   2.668  13.132  1.00  0.00    -0.385 OA
ATOM     73  H   UNL     1      18.298   2.442  12.250  1.00  0.00    +0.211 HD
ENDBRANCH  66  72
BRANCH  67  74
ATOM     74  C   UNL     1      15.825  -0.997  12.758  1.00  0.00    +0.191 C 
BRANCH  74  75
ATOM     75  O   UNL     1      15.088  -1.977  13.488  1.00  0.00    -0.394 OA
ATOM     76  H   UNL     1      14.762  -2.630  12.833  1.00  0.00    +0.210 HD
ENDBRANCH  74  75
ENDBRANCH  67  74
BRANCH  68  77
ATOM     77  O   UNL     1      15.053   2.982  14.038  1.00  0.00    -0.366 OA
ATOM     78  H   UNL     1      14.704   2.153  14.416  1.00  0.00    +0.213 HD
ENDBRANCH  68  77
ENDBRANCH  63  64
ENDBRANCH  60  63
ENDBRANCH  52  53
ENDBRANCH   5  52
TORSDOF 27
ENDMDL
MODEL 6
REMARK VINA RESULT:    -8.084     38.901     41.409
REMARK INTER + INTRA:         -20.422
REMARK INTER:                 -16.675
REMARK INTRA:                  -3.747
REMARK UNBOUND:                -2.886
REMARK SMILES OC[C@@H]1O[C@H](O[C@H]2[C@@H]3OC[C@H]2O[C@@H](O[C@@H]2[C@H](O)[C@@H](O[C@@H]4[C@@H]5OC[C@H]4O[C@H](O[C@@H]4[C@@H](O)[C@H](O)O[C@@H](CO)[C@H]4O)[C@@H]5O)O[C@H](CO)[C@H]2O)[C@H]3O)[C@@H](O)[C@H](O[C@@H]2O[C@@H]3CO[C@H]([C@H]2O)[C@@H]3O)[C@H]1O
REMARK SMILES IDX 15 1 45 2 42 3 41 4 18 5 16 6 14 7 13 8 7 9 11 10 8 11 10 12
REMARK SMILES IDX 12 13 9 14 47 15 6 16 5 17 51 18 63 19 49 20 3 21 4 22 52 23
REMARK SMILES IDX 53 24 56 25 55 26 57 27 61 28 54 29 58 30 59 31 62 32 60 34
REMARK SMILES IDX 64 36 50 38 2 40 1 41 48 43 46 45 17 47 43 49 44 50 19 52
REMARK SMILES IDX 20 53 24 54 21 55 23 56 25 57 22 58 39 59 26 60 40 61 27 63
REMARK SMILES IDX 28 64 37 65 29 66 34 67 31 68 33 69 38 70 30 72 35 74 36 75
REMARK SMILES IDX 32 77
REMARK H PARENT 62 33 60 35 64 37 50 39 1 42 48 44 46 46 17 48 44 51 40 62
REMARK H PARENT 38 71 30 73 36 76 32 78
ROOT
ATOM      1  C   UNL     1       4.715  -3.031  21.179  1.00  0.00    +0.186 C 
ATOM      2  C   UNL     1       4.859  -4.565  21.104  1.00  0.00    +0.177 C 
ATOM      3  C   UNL     1       3.879  -5.294  22.048  1.00  0.00    +0.178 C 
ATOM      4  O   UNL     1       3.425  -4.440  23.100  1.00  0.00    -0.341 OA
ATOM      5  C   UNL     1       2.648  -3.342  22.618  1.00  0.00    +0.282 C 
ATOM      6  C   UNL     1       3.225  -2.696  21.327  1.00  0.00    +0.202 C 
ENDROOT
BRANCH   1   7
ATOM      7  O   UNL     1       5.397  -2.378  22.277  1.00  0.00    -0.341 OA
BRANCH   7   8
ATOM      8  C   UNL     1       6.202  -1.259  21.884  1.00  0.00    +0.282 C 
ATOM      9  C   UNL     1       8.565  -0.353  23.364  1.00  0.00    +0.184 C 
ATOM     10  C   UNL     1       8.384  -1.767  22.830  1.00  0.00    +0.179 C 
ATOM     11  C   UNL     1       7.183  -0.224  24.002  1.00  0.00    +0.184 C 
ATOM     12  C   UNL     1       7.767  -2.466  24.042  1.00  0.00    +0.195 C 
ATOM     13  O   UNL     1       7.542  -1.722  21.657  1.00  0.00    -0.341 OA
ATOM     14  O   UNL     1       6.968  -1.466  24.716  1.00  0.00    -0.370 OA
ATOM     15  C   UNL     1       6.107  -0.098  22.912  1.00  0.00    +0.202 C 
BRANCH   9  16
ATOM     16  O   UNL     1       8.771   0.644  22.372  1.00  0.00    -0.341 OA
BRANCH  16  17
ATOM     17  C   UNL     1      10.002   1.380  22.500  1.00  0.00    +0.282 C 
ATOM     18  C   UNL     1      12.443   1.197  21.706  1.00  0.00    +0.186 C 
ATOM     19  C   UNL     1      12.721   1.685  23.135  1.00  0.00    +0.177 C 
ATOM     20  C   UNL     1      10.992   0.728  21.512  1.00  0.00    +0.202 C 
ATOM     21  C   UNL     1      11.770   1.072  24.165  1.00  0.00    +0.178 C 
ATOM     22  O   UNL     1      10.401   1.354  23.865  1.00  0.00    -0.341 OA
BRANCH  18  23
ATOM     23  O   UNL     1      13.355   0.107  21.442  1.00  0.00    -0.341 OA
BRANCH  23  24
ATOM     24  C   UNL     1      14.054   0.224  20.196  1.00  0.00    +0.282 C 
ATOM     25  C   UNL     1      12.527  -2.247  19.693  1.00  0.00    +0.195 C 
ATOM     26  C   UNL     1      12.908  -1.238  18.611  1.00  0.00    +0.178 C 
ATOM     27  O   UNL     1      13.774  -2.723  20.252  1.00  0.00    -0.370 OA
ATOM     28  C   UNL     1      14.218  -1.829  18.126  1.00  0.00    +0.177 C 
ATOM     29  O   UNL     1      13.127   0.097  19.103  1.00  0.00    -0.341 OA
ATOM     30  C   UNL     1      14.835  -2.100  19.494  1.00  0.00    +0.183 C 
ATOM     31  C   UNL     1      15.244  -0.778  20.160  1.00  0.00    +0.202 C 
BRANCH  28  32
ATOM     32  O   UNL     1      14.980  -0.945  17.315  1.00  0.00    -0.387 OA
ATOM     33  H   UNL     1      15.002  -0.080  17.768  1.00  0.00    +0.211 HD
ENDBRANCH  28  32
BRANCH  31  34
ATOM     34  O   UNL     1      16.363  -0.205  19.462  1.00  0.00    -0.385 OA
ATOM     35  H   UNL     1      16.875   0.307  20.127  1.00  0.00    +0.211 HD
ENDBRANCH  31  34
ENDBRANCH  23  24
ENDBRANCH  18  23
BRANCH  19  36
ATOM     36  O   UNL     1      12.546   3.114  23.145  1.00  0.00    -0.387 OA
ATOM     37  H   UNL     1      11.604   3.300  23.315  1.00  0.00    +0.211 HD
ENDBRANCH  19  36
BRANCH  20  38
ATOM     38  O   UNL     1      10.582   0.980  20.153  1.00  0.00    -0.385 OA
ATOM     39  H   UNL     1      10.050   1.801  20.177  1.00  0.00    +0.211 HD
ENDBRANCH  20  38
BRANCH  21  40
ATOM     40  C   UNL     1      11.954  -0.432  24.408  1.00  0.00    +0.191 C 
BRANCH  40  41
ATOM     41  O   UNL     1      11.273  -0.804  25.615  1.00  0.00    -0.394 OA
ATOM     42  H   UNL     1      10.466  -0.240  25.637  1.00  0.00    +0.210 HD
ENDBRANCH  40  41
ENDBRANCH  21  40
ENDBRANCH  16  17
ENDBRANCH   9  16
BRANCH  15  43
ATOM     43  O   UNL     1       4.803  -0.036  23.505  1.00  0.00    -0.385 OA
ATOM     44  H   UNL     1       4.960   0.283  24.417  1.00  0.00    +0.211 HD
ENDBRANCH  15  43
ENDBRANCH   7   8
ENDBRANCH   1   7
BRANCH   2  45
ATOM     45  O   UNL     1       4.610  -4.997  19.756  1.00  0.00    -0.387 OA
ATOM     46  H   UNL     1       4.602  -4.182  19.211  1.00  0.00    +0.211 HD
ENDBRANCH   2  45
BRANCH   6  47
ATOM     47  O   UNL     1       3.048  -1.267  21.361  1.00  0.00    -0.385 OA
ATOM     48  H   UNL     1       2.082  -1.121  21.331  1.00  0.00    +0.211 HD
ENDBRANCH   6  47
BRANCH   3  49
ATOM     49  C   UNL     1       4.541  -6.528  22.676  1.00  0.00    +0.191 C 
BRANCH  49  50
ATOM     50  O   UNL     1       5.649  -6.976  21.900  1.00  0.00    -0.394 OA
ATOM     51  H   UNL     1       6.336  -7.271  22.541  1.00  0.00    +0.210 HD
ENDBRANCH  49  50
ENDBRANCH   3  49
BRANCH   5  52
ATOM     52  O   UNL     1       1.298  -3.746  22.360  1.00  0.00    -0.341 OA
BRANCH  52  53
ATOM     53  C   UNL     1       0.321  -2.817  22.835  1.00  0.00    +0.184 C 
ATOM     54  C   UNL     1      -0.264  -2.073  21.646  1.00  0.00    +0.179 C 
ATOM     55  C   UNL     1      -0.981  -3.475  23.306  1.00  0.00    +0.184 C 
ATOM     56  C   UNL     1      -1.116  -3.171  21.002  1.00  0.00    +0.195 C 
ATOM     57  O   UNL     1      -1.048  -0.951  22.110  1.00  0.00    -0.341 OA
ATOM     58  O   UNL     1      -1.645  -3.951  22.104  1.00  0.00    -0.370 OA
ATOM     59  C   UNL     1      -1.874  -2.403  23.943  1.00  0.00    +0.202 C 
ATOM     60  C   UNL     1      -2.196  -1.312  22.888  1.00  0.00    +0.282 C 
BRANCH  59  61
ATOM     61  O   UNL     1      -1.214  -1.838  25.087  1.00  0.00    -0.385 OA
ATOM     62  H   UNL     1      -0.994  -2.596  25.664  1.00  0.00    +0.211 HD
ENDBRANCH  59  61
BRANCH  60  63
ATOM     63  O   UNL     1      -2.632  -0.143  23.593  1.00  0.00    -0.341 OA
BRANCH  63  64
ATOM     64  C   UNL     1      -3.330   0.813  22.779  1.00  0.00    +0.186 C 
ATOM     65  C   UNL     1      -4.468   0.056  22.060  1.00  0.00    +0.177 C 
ATOM     66  C   UNL     1      -3.924   2.006  23.562  1.00  0.00    +0.202 C 
ATOM     67  C   UNL     1      -5.576  -0.325  23.065  1.00  0.00    +0.178 C 
ATOM     68  C   UNL     1      -5.068   1.532  24.490  1.00  0.00    +0.279 C 
ATOM     69  O   UNL     1      -6.067   0.840  23.745  1.00  0.00    -0.342 OA
BRANCH  65  70
ATOM     70  O   UNL     1      -5.000   0.849  20.987  1.00  0.00    -0.387 OA
ATOM     71  H   UNL     1      -5.453   0.227  20.373  1.00  0.00    +0.211 HD
ENDBRANCH  65  70
BRANCH  66  72
ATOM     72  O   UNL     1      -4.413   2.966  22.602  1.00  0.00    -0.385 OA
ATOM     73  H   UNL     1      -3.749   3.679  22.538  1.00  0.00    +0.211 HD
ENDBRANCH  66  72
BRANCH  67  74
ATOM     74  C   UNL     1      -6.766  -1.032  22.390  1.00  0.00    +0.191 C 
BRANCH  74  75
ATOM     75  O   UNL     1      -6.427  -1.680  21.164  1.00  0.00    -0.394 OA
ATOM     76  H   UNL     1      -5.629  -2.221  21.342  1.00  0.00    +0.210 HD
ENDBRANCH  74  75
ENDBRANCH  67  74
BRANCH  68  77
ATOM     77  O   UNL     1      -4.629   0.762  25.596  1.00  0.00    -0.366 OA
ATOM     78  H   UNL     1      -5.203  -0.023  25.675  1.00  0.00    +0.213 HD
ENDBRANCH  68  77
ENDBRANCH  63  64
ENDBRANCH  60  63
ENDBRANCH  52  53
ENDBRANCH   5  52
TORSDOF 27
ENDMDL
MODEL 7
REMARK VINA RESULT:    -8.048     14.175     20.527
REMARK INTER + INTRA:         -20.344
REMARK INTER:                 -17.238
REMARK INTRA:                  -3.106
REMARK UNBOUND:                -2.886
REMARK SMILES OC[C@@H]1O[C@H](O[C@H]2[C@@H]3OC[C@H]2O[C@@H](O[C@@H]2[C@H](O)[C@@H](O[C@@H]4[C@@H]5OC[C@H]4O[C@H](O[C@@H]4[C@@H](O)[C@H](O)O[C@@H](CO)[C@H]4O)[C@@H]5O)O[C@H](CO)[C@H]2O)[C@H]3O)[C@@H](O)[C@H](O[C@@H]2O[C@@H]3CO[C@H]([C@H]2O)[C@@H]3O)[C@H]1O
REMARK SMILES IDX 15 1 45 2 42 3 41 4 18 5 16 6 14 7 13 8 7 9 11 10 8 11 10 12
REMARK SMILES IDX 12 13 9 14 47 15 6 16 5 17 51 18 63 19 49 20 3 21 4 22 52 23
REMARK SMILES IDX 53 24 56 25 55 26 57 27 61 28 54 29 58 30 59 31 62 32 60 34
REMARK SMILES IDX 64 36 50 38 2 40 1 41 48 43 46 45 17 47 43 49 44 50 19 52
REMARK SMILES IDX 20 53 24 54 21 55 23 56 25 57 22 58 39 59 26 60 40 61 27 63
REMARK SMILES IDX 28 64 37 65 29 66 34 67 31 68 33 69 38 70 30 72 35 74 36 75
REMARK SMILES IDX 32 77
REMARK H PARENT 62 33 60 35 64 37 50 39 1 42 48 44 46 46 17 48 44 51 40 62
REMARK H PARENT 38 71 30 73 36 76 32 78
ROOT
ATOM      1  C   UNL     1      14.146   8.345  -8.624  1.00  0.00    +0.186 C 
ATOM      2  C   UNL     1      15.187   7.223  -8.818  1.00  0.00    +0.177 C 
ATOM      3  C   UNL     1      16.273   7.600  -9.850  1.00  0.00    +0.178 C 
ATOM      4  O   UNL     1      15.829   8.637 -10.728  1.00  0.00    -0.341 OA
ATOM      5  C   UNL     1      15.594   9.870 -10.045  1.00  0.00    +0.282 C 
ATOM      6  C   UNL     1      14.879   9.692  -8.677  1.00  0.00    +0.202 C 
ENDROOT
BRANCH   1   7
ATOM      7  O   UNL     1      13.087   8.411  -9.610  1.00  0.00    -0.341 OA
BRANCH   7   8
ATOM      8  C   UNL     1      12.713   7.138 -10.153  1.00  0.00    +0.282 C 
ATOM      9  C   UNL     1      10.649   6.786 -12.204  1.00  0.00    +0.184 C 
ATOM     10  C   UNL     1      11.864   7.691 -12.364  1.00  0.00    +0.179 C 
ATOM     11  C   UNL     1      10.250   7.266 -10.810  1.00  0.00    +0.184 C 
ATOM     12  C   UNL     1      11.303   9.030 -11.883  1.00  0.00    +0.195 C 
ATOM     13  O   UNL     1      12.949   7.162 -11.569  1.00  0.00    -0.341 OA
ATOM     14  O   UNL     1      10.331   8.712 -10.860  1.00  0.00    -0.370 OA
ATOM     15  C   UNL     1      11.257   6.758  -9.767  1.00  0.00    +0.202 C 
BRANCH   9  16
ATOM     16  O   UNL     1      10.930   5.393 -12.210  1.00  0.00    -0.341 OA
BRANCH  16  17
ATOM     17  C   UNL     1      10.683   4.731 -13.465  1.00  0.00    +0.282 C 
ATOM     18  C   UNL     1       9.342   2.719 -14.347  1.00  0.00    +0.186 C 
ATOM     19  C   UNL     1      10.607   2.519 -15.194  1.00  0.00    +0.177 C 
ATOM     20  C   UNL     1       9.552   3.715 -13.195  1.00  0.00    +0.202 C 
ATOM     21  C   UNL     1      11.891   2.830 -14.423  1.00  0.00    +0.178 C 
ATOM     22  O   UNL     1      11.906   4.169 -13.924  1.00  0.00    -0.341 OA
BRANCH  18  23
ATOM     23  O   UNL     1       8.972   1.425 -13.819  1.00  0.00    -0.341 OA
BRANCH  23  24
ATOM     24  C   UNL     1       7.563   1.268 -13.603  1.00  0.00    +0.282 C 
ATOM     25  C   UNL     1       7.839  -0.111 -16.194  1.00  0.00    +0.195 C 
ATOM     26  C   UNL     1       6.815  -0.489 -15.125  1.00  0.00    +0.178 C 
ATOM     27  O   UNL     1       7.543   1.257 -16.564  1.00  0.00    -0.370 OA
ATOM     28  C   UNL     1       5.623   0.334 -15.575  1.00  0.00    +0.177 C 
ATOM     29  O   UNL     1       7.193  -0.110 -13.789  1.00  0.00    -0.341 OA
ATOM     30  C   UNL     1       6.365   1.643 -15.822  1.00  0.00    +0.183 C 
ATOM     31  C   UNL     1       6.776   2.278 -14.486  1.00  0.00    +0.202 C 
BRANCH  28  32
ATOM     32  O   UNL     1       4.593   0.430 -14.601  1.00  0.00    -0.387 OA
ATOM     33  H   UNL     1       5.006   0.301 -13.726  1.00  0.00    +0.211 HD
ENDBRANCH  28  32
BRANCH  31  34
ATOM     34  O   UNL     1       5.608   2.750 -13.790  1.00  0.00    -0.385 OA
ATOM     35  H   UNL     1       5.931   3.315 -13.054  1.00  0.00    +0.211 HD
ENDBRANCH  31  34
ENDBRANCH  23  24
ENDBRANCH  18  23
BRANCH  19  36
ATOM     36  O   UNL     1      10.519   3.416 -16.318  1.00  0.00    -0.387 OA
ATOM     37  H   UNL     1       9.584   3.662 -16.433  1.00  0.00    +0.211 HD
ENDBRANCH  19  36
BRANCH  20  38
ATOM     38  O   UNL     1       8.315   4.404 -12.922  1.00  0.00    -0.385 OA
ATOM     39  H   UNL     1       7.691   4.132 -13.626  1.00  0.00    +0.211 HD
ENDBRANCH  20  38
BRANCH  21  40
ATOM     40  C   UNL     1      12.227   1.846 -13.293  1.00  0.00    +0.191 C 
BRANCH  40  41
ATOM     41  O   UNL     1      13.329   2.359 -12.531  1.00  0.00    -0.394 OA
ATOM     42  H   UNL     1      13.146   3.322 -12.434  1.00  0.00    +0.210 HD
ENDBRANCH  40  41
ENDBRANCH  21  40
ENDBRANCH  16  17
ENDBRANCH   9  16
BRANCH  15  43
ATOM     43  O   UNL     1      10.919   7.255  -8.466  1.00  0.00    -0.385 OA
ATOM     44  H   UNL     1      11.758   7.230  -7.965  1.00  0.00    +0.211 HD
ENDBRANCH  15  43
ENDBRANCH   7   8
ENDBRANCH   1   7
BRANCH   2  45
ATOM     45  O   UNL     1      15.823   6.947  -7.559  1.00  0.00    -0.387 OA
ATOM     46  H   UNL     1      16.606   7.533  -7.520  1.00  0.00    +0.211 HD
ENDBRANCH   2  45
BRANCH   6  47
ATOM     47  O   UNL     1      13.942  10.765  -8.459  1.00  0.00    -0.385 OA
ATOM     48  H   UNL     1      13.104  10.469  -8.865  1.00  0.00    +0.211 HD
ENDBRANCH   6  47
BRANCH   3  49
ATOM     49  C   UNL     1      16.667   6.383 -10.697  1.00  0.00    +0.191 C 
BRANCH  49  50
ATOM     50  O   UNL     1      18.082   6.277 -10.830  1.00  0.00    -0.394 OA
ATOM     51  H   UNL     1      18.356   6.986 -11.455  1.00  0.00    +0.210 HD
ENDBRANCH  49  50
ENDBRANCH   3  49
BRANCH   5  52
ATOM     52  O   UNL     1      16.822  10.575  -9.828  1.00  0.00    -0.341 OA
BRANCH  52  53
ATOM     53  C   UNL     1      16.855  11.869 -10.435  1.00  0.00    +0.184 C 
ATOM     54  C   UNL     1      18.104  12.596  -9.967  1.00  0.00    +0.179 C 
ATOM     55  C   UNL     1      17.199  11.844 -11.929  1.00  0.00    +0.184 C 
ATOM     56  C   UNL     1      19.192  11.832 -10.726  1.00  0.00    +0.195 C 
ATOM     57  O   UNL     1      18.028  13.990 -10.343  1.00  0.00    -0.341 OA
ATOM     58  O   UNL     1      18.606  11.490 -12.008  1.00  0.00    -0.370 OA
ATOM     59  C   UNL     1      17.038  13.260 -12.496  1.00  0.00    +0.202 C 
ATOM     60  C   UNL     1      18.005  14.221 -11.757  1.00  0.00    +0.282 C 
BRANCH  59  61
ATOM     61  O   UNL     1      15.673  13.688 -12.355  1.00  0.00    -0.385 OA
ATOM     62  H   UNL     1      15.133  12.878 -12.450  1.00  0.00    +0.211 HD
ENDBRANCH  59  61
BRANCH  60  63
ATOM     63  O   UNL     1      17.537  15.558 -11.975  1.00  0.00    -0.341 OA
BRANCH  63  64
ATOM     64  C   UNL     1      18.496  16.425 -12.602  1.00  0.00    +0.186 C 
ATOM     65  C   UNL     1      17.835  17.813 -12.743  1.00  0.00    +0.177 C 
ATOM     66  C   UNL     1      19.827  16.570 -11.828  1.00  0.00    +0.202 C 
ATOM     67  C   UNL     1      17.702  18.487 -11.361  1.00  0.00    +0.178 C 
ATOM     68  C   UNL     1      19.600  17.314 -10.491  1.00  0.00    +0.279 C 
ATOM     69  O   UNL     1      18.981  18.578 -10.716  1.00  0.00    -0.342 OA
BRANCH  65  70
ATOM     70  O   UNL     1      18.587  18.639 -13.646  1.00  0.00    -0.387 OA
ATOM     71  H   UNL     1      19.039  19.320 -13.098  1.00  0.00    +0.211 HD
ENDBRANCH  65  70
BRANCH  66  72
ATOM     72  O   UNL     1      20.748  17.298 -12.665  1.00  0.00    -0.385 OA
ATOM     73  H   UNL     1      20.563  17.049 -13.591  1.00  0.00    +0.211 HD
ENDBRANCH  66  72
BRANCH  67  74
ATOM     74  C   UNL     1      17.100  19.901 -11.451  1.00  0.00    +0.191 C 
BRANCH  74  75
ATOM     75  O   UNL     1      18.076  20.931 -11.602  1.00  0.00    -0.394 OA
ATOM     76  H   UNL     1      18.752  20.784 -10.907  1.00  0.00    +0.210 HD
ENDBRANCH  74  75
ENDBRANCH  67  74
BRANCH  68  77
ATOM     77  O   UNL     1      18.887  16.559  -9.526  1.00  0.00    -0.366 OA
ATOM     78  H   UNL     1      18.721  17.127  -8.750  1.00  0.00    +0.213 HD
ENDBRANCH  68  77
ENDBRANCH  63  64
ENDBRANCH  60  63
ENDBRANCH  52  53
ENDBRANCH   5  52
TORSDOF 27
ENDMDL
MODEL 8
REMARK VINA RESULT:    -7.955     12.219     15.926
REMARK INTER + INTRA:         -20.143
REMARK INTER:                 -16.141
REMARK INTRA:                  -4.001
REMARK UNBOUND:                -2.886
REMARK SMILES OC[C@@H]1O[C@H](O[C@H]2[C@@H]3OC[C@H]2O[C@@H](O[C@@H]2[C@H](O)[C@@H](O[C@@H]4[C@@H]5OC[C@H]4O[C@H](O[C@@H]4[C@@H](O)[C@H](O)O[C@@H](CO)[C@H]4O)[C@@H]5O)O[C@H](CO)[C@H]2O)[C@H]3O)[C@@H](O)[C@H](O[C@@H]2O[C@@H]3CO[C@H]([C@H]2O)[C@@H]3O)[C@H]1O
REMARK SMILES IDX 15 1 45 2 42 3 41 4 18 5 16 6 14 7 13 8 7 9 11 10 8 11 10 12
REMARK SMILES IDX 12 13 9 14 47 15 6 16 5 17 51 18 63 19 49 20 3 21 4 22 52 23
REMARK SMILES IDX 53 24 56 25 55 26 57 27 61 28 54 29 58 30 59 31 62 32 60 34
REMARK SMILES IDX 64 36 50 38 2 40 1 41 48 43 46 45 17 47 43 49 44 50 19 52
REMARK SMILES IDX 20 53 24 54 21 55 23 56 25 57 22 58 39 59 26 60 40 61 27 63
REMARK SMILES IDX 28 64 37 65 29 66 34 67 31 68 33 69 38 70 30 72 35 74 36 75
REMARK SMILES IDX 32 77
REMARK H PARENT 62 33 60 35 64 37 50 39 1 42 48 44 46 46 17 48 44 51 40 62
REMARK H PARENT 38 71 30 73 36 76 32 78
ROOT
ATOM      1  C   UNL     1      10.283   7.771 -12.982  1.00  0.00    +0.186 C 
ATOM      2  C   UNL     1      10.766   7.279 -11.602  1.00  0.00    +0.177 C 
ATOM      3  C   UNL     1       9.758   6.317 -10.936  1.00  0.00    +0.178 C 
ATOM      4  O   UNL     1       8.444   6.473 -11.474  1.00  0.00    -0.341 OA
ATOM      5  C   UNL     1       8.369   6.109 -12.854  1.00  0.00    +0.282 C 
ATOM      6  C   UNL     1       9.583   6.603 -13.689  1.00  0.00    +0.202 C 
ENDROOT
BRANCH   1   7
ATOM      7  O   UNL     1       9.343   8.873 -12.974  1.00  0.00    -0.341 OA
BRANCH   7   8
ATOM      8  C   UNL     1       9.918  10.135 -13.338  1.00  0.00    +0.282 C 
ATOM      9  C   UNL     1       8.540  12.703 -13.019  1.00  0.00    +0.184 C 
ATOM     10  C   UNL     1       8.779  11.718 -11.883  1.00  0.00    +0.179 C 
ATOM     11  C   UNL     1       8.012  11.687 -14.030  1.00  0.00    +0.184 C 
ATOM     12  C   UNL     1       7.482  10.909 -11.913  1.00  0.00    +0.195 C 
ATOM     13  O   UNL     1       9.977  10.961 -12.164  1.00  0.00    -0.341 OA
ATOM     14  O   UNL     1       7.069  10.866 -13.298  1.00  0.00    -0.370 OA
ATOM     15  C   UNL     1       9.157  10.789 -14.524  1.00  0.00    +0.202 C 
BRANCH   9  16
ATOM     16  O   UNL     1       9.704  13.358 -13.504  1.00  0.00    -0.341 OA
BRANCH  16  17
ATOM     17  C   UNL     1      10.351  14.226 -12.554  1.00  0.00    +0.282 C 
ATOM     18  C   UNL     1      11.083  16.687 -12.387  1.00  0.00    +0.186 C 
ATOM     19  C   UNL     1      12.310  16.054 -11.713  1.00  0.00    +0.177 C 
ATOM     20  C   UNL     1      10.213  15.655 -13.121  1.00  0.00    +0.202 C 
ATOM     21  C   UNL     1      12.737  14.743 -12.374  1.00  0.00    +0.178 C 
ATOM     22  O   UNL     1      11.687  13.773 -12.370  1.00  0.00    -0.341 OA
BRANCH  18  23
ATOM     23  O   UNL     1      11.572  17.676 -13.322  1.00  0.00    -0.341 OA
BRANCH  23  24
ATOM     24  C   UNL     1      11.002  18.979 -13.139  1.00  0.00    +0.282 C 
ATOM     25  C   UNL     1      13.866  19.636 -12.901  1.00  0.00    +0.195 C 
ATOM     26  C   UNL     1      12.812  20.584 -13.468  1.00  0.00    +0.178 C 
ATOM     27  O   UNL     1      13.463  19.362 -11.538  1.00  0.00    -0.370 OA
ATOM     28  C   UNL     1      12.428  21.356 -12.220  1.00  0.00    +0.177 C 
ATOM     29  O   UNL     1      11.654  19.921 -14.009  1.00  0.00    -0.341 OA
ATOM     30  C   UNL     1      12.288  20.162 -11.282  1.00  0.00    +0.183 C 
ATOM     31  C   UNL     1      11.026  19.360 -11.631  1.00  0.00    +0.202 C 
BRANCH  28  32
ATOM     32  O   UNL     1      11.238  22.119 -12.362  1.00  0.00    -0.387 OA
ATOM     33  H   UNL     1      11.481  22.962 -12.792  1.00  0.00    +0.211 HD
ENDBRANCH  28  32
BRANCH  31  34
ATOM     34  O   UNL     1       9.854  20.120 -11.286  1.00  0.00    -0.385 OA
ATOM     35  H   UNL     1      10.057  20.580 -10.442  1.00  0.00    +0.211 HD
ENDBRANCH  31  34
ENDBRANCH  23  24
ENDBRANCH  18  23
BRANCH  19  36
ATOM     36  O   UNL     1      11.957  15.783 -10.343  1.00  0.00    -0.387 OA
ATOM     37  H   UNL     1      11.557  14.896 -10.307  1.00  0.00    +0.211 HD
ENDBRANCH  19  36
BRANCH  20  38
ATOM     38  O   UNL     1       8.834  16.076 -13.086  1.00  0.00    -0.385 OA
ATOM     39  H   UNL     1       8.797  16.834 -12.468  1.00  0.00    +0.211 HD
ENDBRANCH  20  38
BRANCH  21  40
ATOM     40  C   UNL     1      13.313  14.884 -13.790  1.00  0.00    +0.191 C 
BRANCH  40  41
ATOM     41  O   UNL     1      14.105  16.079 -13.862  1.00  0.00    -0.394 OA
ATOM     42  H   UNL     1      15.035  15.765 -13.939  1.00  0.00    +0.210 HD
ENDBRANCH  40  41
ENDBRANCH  21  40
ENDBRANCH  16  17
ENDBRANCH   9  16
BRANCH  15  43
ATOM     43  O   UNL     1       8.655   9.796 -15.428  1.00  0.00    -0.385 OA
ATOM     44  H   UNL     1       9.313   9.764 -16.151  1.00  0.00    +0.211 HD
ENDBRANCH  15  43
ENDBRANCH   7   8
ENDBRANCH   1   7
BRANCH   2  45
ATOM     45  O   UNL     1      12.022   6.598 -11.757  1.00  0.00    -0.387 OA
ATOM     46  H   UNL     1      11.966   5.800 -11.192  1.00  0.00    +0.211 HD
ENDBRANCH   2  45
BRANCH   6  47
ATOM     47  O   UNL     1       9.153   7.015 -15.001  1.00  0.00    -0.385 OA
ATOM     48  H   UNL     1       8.326   6.524 -15.172  1.00  0.00    +0.211 HD
ENDBRANCH   6  47
BRANCH   3  49
ATOM     49  C   UNL     1       9.694   6.557  -9.421  1.00  0.00    +0.191 C 
BRANCH  49  50
ATOM     50  O   UNL     1       8.640   7.454  -9.080  1.00  0.00    -0.394 OA
ATOM     51  H   UNL     1       9.016   8.361  -9.143  1.00  0.00    +0.210 HD
ENDBRANCH  49  50
ENDBRANCH   3  49
BRANCH   5  52
ATOM     52  O   UNL     1       8.265   4.688 -13.001  1.00  0.00    -0.341 OA
BRANCH  52  53
ATOM     53  C   UNL     1       9.431   4.083 -13.566  1.00  0.00    +0.184 C 
ATOM     54  C   UNL     1       9.812   2.877 -12.725  1.00  0.00    +0.179 C 
ATOM     55  C   UNL     1       9.165   3.326 -14.872  1.00  0.00    +0.184 C 
ATOM     56  C   UNL     1       8.699   1.894 -13.097  1.00  0.00    +0.195 C 
ATOM     57  O   UNL     1      11.126   2.411 -13.106  1.00  0.00    -0.341 OA
ATOM     58  O   UNL     1       8.417   2.137 -14.498  1.00  0.00    -0.370 OA
ATOM     59  C   UNL     1      10.506   2.871 -15.462  1.00  0.00    +0.202 C 
ATOM     60  C   UNL     1      11.217   1.932 -14.453  1.00  0.00    +0.282 C 
BRANCH  59  61
ATOM     61  O   UNL     1      11.318   4.018 -15.763  1.00  0.00    -0.385 OA
ATOM     62  H   UNL     1      11.343   4.073 -16.739  1.00  0.00    +0.211 HD
ENDBRANCH  59  61
BRANCH  60  63
ATOM     63  O   UNL     1      12.604   1.885 -14.809  1.00  0.00    -0.341 OA
BRANCH  63  64
ATOM     64  C   UNL     1      13.504   2.083 -13.707  1.00  0.00    +0.186 C 
ATOM     65  C   UNL     1      14.772   1.251 -13.997  1.00  0.00    +0.177 C 
ATOM     66  C   UNL     1      13.904   3.556 -13.465  1.00  0.00    +0.202 C 
ATOM     67  C   UNL     1      15.582   1.891 -15.143  1.00  0.00    +0.178 C 
ATOM     68  C   UNL     1      14.767   4.084 -14.636  1.00  0.00    +0.279 C 
ATOM     69  O   UNL     1      15.908   3.255 -14.836  1.00  0.00    -0.342 OA
BRANCH  65  70
ATOM     70  O   UNL     1      15.573   1.125 -12.811  1.00  0.00    -0.387 OA
ATOM     71  H   UNL     1      15.994   2.001 -12.659  1.00  0.00    +0.211 HD
ENDBRANCH  65  70
BRANCH  66  72
ATOM     72  O   UNL     1      14.638   3.618 -12.225  1.00  0.00    -0.385 OA
ATOM     73  H   UNL     1      15.368   2.972 -12.284  1.00  0.00    +0.211 HD
ENDBRANCH  66  72
BRANCH  67  74
ATOM     74  C   UNL     1      16.890   1.132 -15.435  1.00  0.00    +0.191 C 
BRANCH  74  75
ATOM     75  O   UNL     1      16.877  -0.224 -14.993  1.00  0.00    -0.394 OA
ATOM     76  H   UNL     1      17.030  -0.207 -14.025  1.00  0.00    +0.210 HD
ENDBRANCH  74  75
ENDBRANCH  67  74
BRANCH  68  77
ATOM     77  O   UNL     1      14.048   4.266 -15.844  1.00  0.00    -0.366 OA
ATOM     78  H   UNL     1      14.686   4.316 -16.580  1.00  0.00    +0.213 HD
ENDBRANCH  68  77
ENDBRANCH  63  64
ENDBRANCH  60  63
ENDBRANCH  52  53
ENDBRANCH   5  52
TORSDOF 27
ENDMDL
MODEL 9
REMARK VINA RESULT:    -7.781     13.290     17.785
REMARK INTER + INTRA:         -19.764
REMARK INTER:                 -15.811
REMARK INTRA:                  -3.953
REMARK UNBOUND:                -2.886
REMARK SMILES OC[C@@H]1O[C@H](O[C@H]2[C@@H]3OC[C@H]2O[C@@H](O[C@@H]2[C@H](O)[C@@H](O[C@@H]4[C@@H]5OC[C@H]4O[C@H](O[C@@H]4[C@@H](O)[C@H](O)O[C@@H](CO)[C@H]4O)[C@@H]5O)O[C@H](CO)[C@H]2O)[C@H]3O)[C@@H](O)[C@H](O[C@@H]2O[C@@H]3CO[C@H]([C@H]2O)[C@@H]3O)[C@H]1O
REMARK SMILES IDX 15 1 45 2 42 3 41 4 18 5 16 6 14 7 13 8 7 9 11 10 8 11 10 12
REMARK SMILES IDX 12 13 9 14 47 15 6 16 5 17 51 18 63 19 49 20 3 21 4 22 52 23
REMARK SMILES IDX 53 24 56 25 55 26 57 27 61 28 54 29 58 30 59 31 62 32 60 34
REMARK SMILES IDX 64 36 50 38 2 40 1 41 48 43 46 45 17 47 43 49 44 50 19 52
REMARK SMILES IDX 20 53 24 54 21 55 23 56 25 57 22 58 39 59 26 60 40 61 27 63
REMARK SMILES IDX 28 64 37 65 29 66 34 67 31 68 33 69 38 70 30 72 35 74 36 75
REMARK SMILES IDX 32 77
REMARK H PARENT 62 33 60 35 64 37 50 39 1 42 48 44 46 46 17 48 44 51 40 62
REMARK H PARENT 38 71 30 73 36 76 32 78
ROOT
ATOM      1  C   UNL     1      15.385  11.631 -10.512  1.00  0.00    +0.186 C 
ATOM      2  C   UNL     1      14.421  12.528  -9.708  1.00  0.00    +0.177 C 
ATOM      3  C   UNL     1      12.941  12.276 -10.073  1.00  0.00    +0.178 C 
ATOM      4  O   UNL     1      12.811  11.666 -11.358  1.00  0.00    -0.341 OA
ATOM      5  C   UNL     1      13.380  10.356 -11.405  1.00  0.00    +0.282 C 
ATOM      6  C   UNL     1      14.740  10.247 -10.660  1.00  0.00    +0.202 C 
ENDROOT
BRANCH   1   7
ATOM      7  O   UNL     1      15.711  12.080 -11.849  1.00  0.00    -0.341 OA
BRANCH   7   8
ATOM      8  C   UNL     1      15.949  13.490 -11.951  1.00  0.00    +0.282 C 
ATOM      9  C   UNL     1      15.933  14.966 -14.484  1.00  0.00    +0.184 C 
ATOM     10  C   UNL     1      14.769  14.122 -13.982  1.00  0.00    +0.179 C 
ATOM     11  C   UNL     1      17.029  13.936 -14.221  1.00  0.00    +0.184 C 
ATOM     12  C   UNL     1      15.068  12.778 -14.649  1.00  0.00    +0.195 C 
ATOM     13  O   UNL     1      14.791  14.105 -12.537  1.00  0.00    -0.341 OA
ATOM     14  O   UNL     1      16.509  12.680 -14.722  1.00  0.00    -0.370 OA
ATOM     15  C   UNL     1      17.270  13.793 -12.710  1.00  0.00    +0.202 C 
BRANCH   9  16
ATOM     16  O   UNL     1      16.165  16.165 -13.756  1.00  0.00    -0.341 OA
BRANCH  16  17
ATOM     17  C   UNL     1      16.012  17.376 -14.520  1.00  0.00    +0.282 C 
ATOM     18  C   UNL     1      14.515  19.470 -14.525  1.00  0.00    +0.186 C 
ATOM     19  C   UNL     1      14.578  19.250 -16.044  1.00  0.00    +0.177 C 
ATOM     20  C   UNL     1      15.019  18.255 -13.730  1.00  0.00    +0.202 C 
ATOM     21  C   UNL     1      14.532  17.770 -16.430  1.00  0.00    +0.178 C 
ATOM     22  O   UNL     1      15.600  17.027 -15.836  1.00  0.00    -0.341 OA
BRANCH  18  23
ATOM     23  O   UNL     1      13.136  19.743 -14.190  1.00  0.00    -0.341 OA
BRANCH  23  24
ATOM     24  C   UNL     1      12.691  19.096 -12.991  1.00  0.00    +0.282 C 
ATOM     25  C   UNL     1      10.124  20.155 -13.982  1.00  0.00    +0.195 C 
ATOM     26  C   UNL     1      10.268  18.862 -13.182  1.00  0.00    +0.178 C 
ATOM     27  O   UNL     1      10.623  21.210 -13.126  1.00  0.00    -0.370 OA
ATOM     28  C   UNL     1      10.052  19.378 -11.772  1.00  0.00    +0.177 C 
ATOM     29  O   UNL     1      11.566  18.248 -13.284  1.00  0.00    -0.341 OA
ATOM     30  C   UNL     1      10.965  20.596 -11.864  1.00  0.00    +0.183 C 
ATOM     31  C   UNL     1      12.435  20.155 -11.881  1.00  0.00    +0.202 C 
BRANCH  28  32
ATOM     32  O   UNL     1      10.425  18.453 -10.760  1.00  0.00    -0.387 OA
ATOM     33  H   UNL     1      10.388  17.560 -11.153  1.00  0.00    +0.211 HD
ENDBRANCH  28  32
BRANCH  31  34
ATOM     34  O   UNL     1      12.803  19.631 -10.592  1.00  0.00    -0.385 OA
ATOM     35  H   UNL     1      12.327  18.777 -10.491  1.00  0.00    +0.211 HD
ENDBRANCH  31  34
ENDBRANCH  23  24
ENDBRANCH  18  23
BRANCH  19  36
ATOM     36  O   UNL     1      15.823  19.806 -16.509  1.00  0.00    -0.387 OA
ATOM     37  H   UNL     1      16.440  19.068 -16.669  1.00  0.00    +0.211 HD
ENDBRANCH  19  36
BRANCH  20  38
ATOM     38  O   UNL     1      15.617  18.701 -12.496  1.00  0.00    -0.385 OA
ATOM     39  H   UNL     1      16.570  18.485 -12.562  1.00  0.00    +0.211 HD
ENDBRANCH  20  38
BRANCH  21  40
ATOM     40  C   UNL     1      13.194  17.068 -16.162  1.00  0.00    +0.191 C 
BRANCH  40  41
ATOM     41  O   UNL     1      12.123  18.007 -16.339  1.00  0.00    -0.394 OA
ATOM     42  H   UNL     1      11.445  17.749 -15.673  1.00  0.00    +0.210 HD
ENDBRANCH  40  41
ENDBRANCH  21  40
ENDBRANCH  16  17
ENDBRANCH   9  16
BRANCH  15  43
ATOM     43  O   UNL     1      18.256  12.785 -12.457  1.00  0.00    -0.385 OA
ATOM     44  H   UNL     1      18.733  12.685 -13.306  1.00  0.00    +0.211 HD
ENDBRANCH  15  43
ENDBRANCH   7   8
ENDBRANCH   1   7
BRANCH   2  45
ATOM     45  O   UNL     1      14.601  12.275  -8.305  1.00  0.00    -0.387 OA
ATOM     46  H   UNL     1      14.472  13.137  -7.858  1.00  0.00    +0.211 HD
ENDBRANCH   2  45
BRANCH   6  47
ATOM     47  O   UNL     1      15.631   9.367 -11.373  1.00  0.00    -0.385 OA
ATOM     48  H   UNL     1      16.515   9.518 -10.986  1.00  0.00    +0.211 HD
ENDBRANCH   6  47
BRANCH   3  49
ATOM     49  C   UNL     1      12.148  13.590 -10.076  1.00  0.00    +0.191 C 
BRANCH  49  50
ATOM     50  O   UNL     1      12.679  14.521  -9.137  1.00  0.00    -0.394 OA
ATOM     51  H   UNL     1      12.128  15.333  -9.208  1.00  0.00    +0.210 HD
ENDBRANCH  49  50
ENDBRANCH   3  49
BRANCH   5  52
ATOM     52  O   UNL     1      12.479   9.389 -10.851  1.00  0.00    -0.341 OA
BRANCH  52  53
ATOM     53  C   UNL     1      11.918   8.505 -11.826  1.00  0.00    +0.184 C 
ATOM     54  C   UNL     1      11.762   7.128 -11.203  1.00  0.00    +0.179 C 
ATOM     55  C   UNL     1      10.432   8.756 -12.106  1.00  0.00    +0.184 C 
ATOM     56  C   UNL     1      10.594   7.370 -10.243  1.00  0.00    +0.195 C 
ATOM     57  O   UNL     1      11.455   6.160 -12.231  1.00  0.00    -0.341 OA
ATOM     58  O   UNL     1       9.722   8.310 -10.919  1.00  0.00    -0.370 OA
ATOM     59  C   UNL     1       9.994   7.868 -13.276  1.00  0.00    +0.202 C 
ATOM     60  C   UNL     1      10.206   6.379 -12.898  1.00  0.00    +0.282 C 
BRANCH  59  61
ATOM     61  O   UNL     1      10.739   8.214 -14.455  1.00  0.00    -0.385 OA
ATOM     62  H   UNL     1      11.662   7.947 -14.270  1.00  0.00    +0.211 HD
ENDBRANCH  59  61
BRANCH  60  63
ATOM     63  O   UNL     1      10.219   5.621 -14.114  1.00  0.00    -0.341 OA
BRANCH  63  64
ATOM     64  C   UNL     1      10.520   4.227 -13.937  1.00  0.00    +0.186 C 
ATOM     65  C   UNL     1       9.186   3.503 -13.653  1.00  0.00    +0.177 C 
ATOM     66  C   UNL     1      11.212   3.565 -15.151  1.00  0.00    +0.202 C 
ATOM     67  C   UNL     1       8.323   3.449 -14.931  1.00  0.00    +0.178 C 
ATOM     68  C   UNL     1      10.246   3.498 -16.358  1.00  0.00    +0.279 C 
ATOM     69  O   UNL     1       9.042   2.822 -16.003  1.00  0.00    -0.342 OA
BRANCH  65  70
ATOM     70  O   UNL     1       9.429   2.183 -13.142  1.00  0.00    -0.387 OA
ATOM     71  H   UNL     1       9.460   2.261 -12.161  1.00  0.00    +0.211 HD
ENDBRANCH  65  70
BRANCH  66  72
ATOM     72  O   UNL     1      11.624   2.240 -14.756  1.00  0.00    -0.385 OA
ATOM     73  H   UNL     1      12.549   2.123 -15.047  1.00  0.00    +0.211 HD
ENDBRANCH  66  72
BRANCH  67  74
ATOM     74  C   UNL     1       7.003   2.685 -14.718  1.00  0.00    +0.191 C 
BRANCH  74  75
ATOM     75  O   UNL     1       6.275   2.452 -15.923  1.00  0.00    -0.394 OA
ATOM     76  H   UNL     1       6.497   1.542 -16.216  1.00  0.00    +0.210 HD
ENDBRANCH  74  75
ENDBRANCH  67  74
BRANCH  68  77
ATOM     77  O   UNL     1       9.971   4.758 -16.945  1.00  0.00    -0.366 OA
ATOM     78  H   UNL     1      10.126   4.693 -17.906  1.00  0.00    +0.213 HD
ENDBRANCH  68  77
ENDBRANCH  63  64
ENDBRANCH  60  63
ENDBRANCH  52  53
ENDBRANCH   5  52
TORSDOF 27
ENDMDL
