MODEL 1
REMARK VINA RESULT:    -7.545      0.000      0.000
REMARK INTER + INTRA:         -12.178
REMARK INTER:                 -11.074
REMARK INTRA:                  -1.104
REMARK UNBOUND:                -1.104
REMARK SMILES O=S(=O)(O)OC[C@@H]1O[C@H](O[C@H]2[C@@H]3OC[C@H]2O[C@@H](O)[C@H]3O)[C@@H](O)[C@H](O)[C@@H]1O
REMARK SMILES IDX 9 1 21 2 23 3 25 4 7 5 8 6 10 7 11 8 14 9 15 10 13 11 16 12
REMARK SMILES IDX 12 13 17 14 19 15 18 16 20 18 22 20 24 22 6 24 5 25 2 26
REMARK SMILES IDX 1 27 3 28 4 29 26 31
REMARK H PARENT 18 17 20 19 22 21 24 23 4 30 26 32
ROOT
ATOM      1  C   UNL     1      19.651   5.162  28.274  1.00  0.00    +0.282 C 
ATOM      2  C   UNL     1      19.424   5.734  29.687  1.00  0.00    +0.202 C 
ATOM      3  C   UNL     1      18.653   7.037  29.552  1.00  0.00    +0.179 C 
ATOM      4  C   UNL     1      17.265   6.745  28.975  1.00  0.00    +0.177 C 
ATOM      5  C   UNL     1      17.278   5.618  27.914  1.00  0.00    +0.180 C 
ATOM      6  O   UNL     1      18.588   5.406  27.355  1.00  0.00    -0.341 OA
ENDROOT
BRANCH   1   7
ATOM      7  O   UNL     1      19.968   3.774  28.411  1.00  0.00    -0.341 OA
BRANCH   7   8
ATOM      8  C   UNL     1      20.713   3.263  27.310  1.00  0.00    +0.184 C 
ATOM      9  C   UNL     1      20.898   2.098  25.285  1.00  0.00    +0.195 C 
ATOM     10  C   UNL     1      19.882   2.912  26.086  1.00  0.00    +0.179 C 
ATOM     11  O   UNL     1      21.723   1.418  26.266  1.00  0.00    -0.370 OA
ATOM     12  O   UNL     1      18.720   2.154  26.469  1.00  0.00    -0.342 OA
ATOM     13  C   UNL     1      21.273   1.869  27.569  1.00  0.00    +0.184 C 
ATOM     14  C   UNL     1      18.964   0.917  27.129  1.00  0.00    +0.279 C 
ATOM     15  C   UNL     1      20.168   0.945  28.098  1.00  0.00    +0.202 C 
BRANCH  14  16
ATOM     16  O   UNL     1      19.143  -0.099  26.145  1.00  0.00    -0.366 OA
ATOM     17  H   UNL     1      19.980  -0.532  26.390  1.00  0.00    +0.213 HD
ENDBRANCH  14  16
BRANCH  15  18
ATOM     18  O   UNL     1      20.683  -0.376  28.309  1.00  0.00    -0.385 OA
ATOM     19  H   UNL     1      19.904  -0.958  28.176  1.00  0.00    +0.211 HD
ENDBRANCH  15  18
ENDBRANCH   7   8
ENDBRANCH   1   7
BRANCH   2  20
ATOM     20  O   UNL     1      20.670   5.991  30.356  1.00  0.00    -0.385 OA
ATOM     21  H   UNL     1      20.833   5.217  30.930  1.00  0.00    +0.211 HD
ENDBRANCH   2  20
BRANCH   3  22
ATOM     22  O   UNL     1      18.509   7.669  30.835  1.00  0.00    -0.387 OA
ATOM     23  H   UNL     1      18.415   6.928  31.470  1.00  0.00    +0.211 HD
ENDBRANCH   3  22
BRANCH   5  24
ATOM     24  C   UNL     1      16.623   4.297  28.359  1.00  0.00    +0.220 C 
BRANCH  24  25
ATOM     25  O   UNL     1      15.309   4.236  27.810  1.00  0.00    -0.245 OA
BRANCH  25  26
ATOM     26  S   UNL     1      15.073   3.290  26.512  1.00  0.00    +0.397 S 
ATOM     27  O   UNL     1      13.992   3.815  25.709  1.00  0.00    -0.169 OA
ATOM     28  O   UNL     1      15.114   1.911  26.943  1.00  0.00    -0.169 OA
BRANCH  26  29
ATOM     29  O   UNL     1      16.441   3.504  25.691  1.00  0.00    -0.264 OA
ATOM     30  H   UNL     1      16.241   4.124  24.961  1.00  0.00    +0.236 HD
ENDBRANCH  26  29
ENDBRANCH  25  26
ENDBRANCH  24  25
ENDBRANCH   5  24
BRANCH   4  31
ATOM     31  O   UNL     1      16.364   6.445  30.047  1.00  0.00    -0.387 OA
ATOM     32  H   UNL     1      15.762   5.758  29.684  1.00  0.00    +0.211 HD
ENDBRANCH   4  31
TORSDOF 11
ENDMDL
MODEL 2
REMARK VINA RESULT:    -7.422      2.207      4.700
REMARK INTER + INTRA:         -11.998
REMARK INTER:                 -10.539
REMARK INTRA:                  -1.459
REMARK UNBOUND:                -1.104
REMARK SMILES O=S(=O)(O)OC[C@@H]1O[C@H](O[C@H]2[C@@H]3OC[C@H]2O[C@@H](O)[C@H]3O)[C@@H](O)[C@H](O)[C@@H]1O
REMARK SMILES IDX 9 1 21 2 23 3 25 4 7 5 8 6 10 7 11 8 14 9 15 10 13 11 16 12
REMARK SMILES IDX 12 13 17 14 19 15 18 16 20 18 22 20 24 22 6 24 5 25 2 26
REMARK SMILES IDX 1 27 3 28 4 29 26 31
REMARK H PARENT 18 17 20 19 22 21 24 23 4 30 26 32
ROOT
ATOM      1  C   UNL     1      20.094   4.194  27.709  1.00  0.00    +0.282 C 
ATOM      2  C   UNL     1      20.846   3.264  28.681  1.00  0.00    +0.202 C 
ATOM      3  C   UNL     1      22.307   3.678  28.698  1.00  0.00    +0.179 C 
ATOM      4  C   UNL     1      22.426   5.093  29.273  1.00  0.00    +0.177 C 
ATOM      5  C   UNL     1      21.256   6.014  28.851  1.00  0.00    +0.180 C 
ATOM      6  O   UNL     1      20.578   5.535  27.675  1.00  0.00    -0.341 OA
ENDROOT
BRANCH   1   7
ATOM      7  O   UNL     1      18.699   4.107  28.011  1.00  0.00    -0.341 OA
BRANCH   7   8
ATOM      8  C   UNL     1      17.869   4.400  26.892  1.00  0.00    +0.184 C 
ATOM      9  C   UNL     1      15.807   4.409  25.776  1.00  0.00    +0.195 C 
ATOM     10  C   UNL     1      16.379   4.429  27.195  1.00  0.00    +0.179 C 
ATOM     11  O   UNL     1      16.736   3.622  24.986  1.00  0.00    -0.370 OA
ATOM     12  O   UNL     1      16.003   3.282  27.978  1.00  0.00    -0.342 OA
ATOM     13  C   UNL     1      17.835   3.272  25.867  1.00  0.00    +0.184 C 
ATOM     14  C   UNL     1      16.244   2.010  27.387  1.00  0.00    +0.279 C 
ATOM     15  C   UNL     1      17.549   1.934  26.563  1.00  0.00    +0.202 C 
BRANCH  14  16
ATOM     16  O   UNL     1      15.124   1.662  26.577  1.00  0.00    -0.366 OA
ATOM     17  H   UNL     1      14.902   0.752  26.845  1.00  0.00    +0.213 HD
ENDBRANCH  14  16
BRANCH  15  18
ATOM     18  O   UNL     1      17.482   0.875  25.598  1.00  0.00    -0.385 OA
ATOM     19  H   UNL     1      18.329   0.947  25.109  1.00  0.00    +0.211 HD
ENDBRANCH  15  18
ENDBRANCH   7   8
ENDBRANCH   1   7
BRANCH   2  20
ATOM     20  O   UNL     1      20.750   1.889  28.273  1.00  0.00    -0.385 OA
ATOM     21  H   UNL     1      20.229   1.437  28.966  1.00  0.00    +0.211 HD
ENDBRANCH   2  20
BRANCH   3  22
ATOM     22  O   UNL     1      23.076   2.773  29.508  1.00  0.00    -0.387 OA
ATOM     23  H   UNL     1      23.102   3.190  30.395  1.00  0.00    +0.211 HD
ENDBRANCH   3  22
BRANCH   5  24
ATOM     24  C   UNL     1      20.269   6.372  29.977  1.00  0.00    +0.220 C 
BRANCH  24  25
ATOM     25  O   UNL     1      19.546   7.539  29.591  1.00  0.00    -0.245 OA
BRANCH  25  26
ATOM     26  S   UNL     1      17.926   7.448  29.550  1.00  0.00    +0.397 S 
ATOM     27  O   UNL     1      17.459   7.565  28.188  1.00  0.00    -0.169 OA
ATOM     28  O   UNL     1      17.398   8.266  30.619  1.00  0.00    -0.169 OA
BRANCH  26  29
ATOM     29  O   UNL     1      17.665   5.932  30.027  1.00  0.00    -0.264 OA
ATOM     30  H   UNL     1      17.649   5.378  29.221  1.00  0.00    +0.236 HD
ENDBRANCH  26  29
ENDBRANCH  25  26
ENDBRANCH  24  25
ENDBRANCH   5  24
BRANCH   4  31
ATOM     31  O   UNL     1      22.540   5.012  30.698  1.00  0.00    -0.387 OA
ATOM     32  H   UNL     1      21.944   4.274  30.957  1.00  0.00    +0.211 HD
ENDBRANCH   4  31
TORSDOF 11
ENDMDL
MODEL 3
REMARK VINA RESULT:    -7.277      3.254      5.418
REMARK INTER + INTRA:         -11.785
REMARK INTER:                 -10.649
REMARK INTRA:                  -1.136
REMARK UNBOUND:                -1.104
REMARK SMILES O=S(=O)(O)OC[C@@H]1O[C@H](O[C@H]2[C@@H]3OC[C@H]2O[C@@H](O)[C@H]3O)[C@@H](O)[C@H](O)[C@@H]1O
REMARK SMILES IDX 9 1 21 2 23 3 25 4 7 5 8 6 10 7 11 8 14 9 15 10 13 11 16 12
REMARK SMILES IDX 12 13 17 14 19 15 18 16 20 18 22 20 24 22 6 24 5 25 2 26
REMARK SMILES IDX 1 27 3 28 4 29 26 31
REMARK H PARENT 18 17 20 19 22 21 24 23 4 30 26 32
ROOT
ATOM      1  C   UNL     1      18.044   5.904  28.636  1.00  0.00    +0.282 C 
ATOM      2  C   UNL     1      17.467   7.097  29.424  1.00  0.00    +0.202 C 
ATOM      3  C   UNL     1      18.546   7.612  30.361  1.00  0.00    +0.179 C 
ATOM      4  C   UNL     1      19.713   8.162  29.536  1.00  0.00    +0.177 C 
ATOM      5  C   UNL     1      19.983   7.341  28.252  1.00  0.00    +0.180 C 
ATOM      6  O   UNL     1      19.432   6.012  28.326  1.00  0.00    -0.341 OA
ENDROOT
BRANCH   1   7
ATOM      7  O   UNL     1      17.223   5.704  27.482  1.00  0.00    -0.341 OA
BRANCH   7   8
ATOM      8  C   UNL     1      16.602   4.423  27.457  1.00  0.00    +0.184 C 
ATOM      9  C   UNL     1      16.597   2.123  27.007  1.00  0.00    +0.195 C 
ATOM     10  C   UNL     1      17.566   3.251  27.363  1.00  0.00    +0.179 C 
ATOM     11  O   UNL     1      15.555   2.735  26.204  1.00  0.00    -0.370 OA
ATOM     12  O   UNL     1      18.556   3.494  26.347  1.00  0.00    -0.342 OA
ATOM     13  C   UNL     1      15.847   4.156  26.160  1.00  0.00    +0.184 C 
ATOM     14  C   UNL     1      18.066   3.689  25.025  1.00  0.00    +0.279 C 
ATOM     15  C   UNL     1      16.739   4.476  24.953  1.00  0.00    +0.202 C 
BRANCH  14  16
ATOM     16  O   UNL     1      17.923   2.417  24.398  1.00  0.00    -0.366 OA
ATOM     17  H   UNL     1      16.970   2.342  24.212  1.00  0.00    +0.213 HD
ENDBRANCH  14  16
BRANCH  15  18
ATOM     18  O   UNL     1      16.044   4.193  23.732  1.00  0.00    -0.385 OA
ATOM     19  H   UNL     1      16.593   4.623  23.042  1.00  0.00    +0.211 HD
ENDBRANCH  15  18
ENDBRANCH   7   8
ENDBRANCH   1   7
BRANCH   2  20
ATOM     20  O   UNL     1      16.317   6.709  30.196  1.00  0.00    -0.385 OA
ATOM     21  H   UNL     1      15.684   6.321  29.561  1.00  0.00    +0.211 HD
ENDBRANCH   2  20
BRANCH   3  22
ATOM     22  O   UNL     1      18.025   8.657  31.199  1.00  0.00    -0.387 OA
ATOM     23  H   UNL     1      18.806   9.202  31.435  1.00  0.00    +0.211 HD
ENDBRANCH   3  22
BRANCH   5  24
ATOM     24  C   UNL     1      19.607   8.046  26.936  1.00  0.00    +0.220 C 
BRANCH  24  25
ATOM     25  O   UNL     1      20.802   8.529  26.325  1.00  0.00    -0.245 OA
BRANCH  25  26
ATOM     26  S   UNL     1      20.888  10.113  25.980  1.00  0.00    +0.397 S 
ATOM     27  O   UNL     1      22.243  10.583  26.152  1.00  0.00    -0.169 OA
ATOM     28  O   UNL     1      19.759  10.774  26.595  1.00  0.00    -0.169 OA
BRANCH  26  29
ATOM     29  O   UNL     1      20.562  10.129  24.403  1.00  0.00    -0.264 OA
ATOM     30  H   UNL     1      20.894   9.285  24.035  1.00  0.00    +0.236 HD
ENDBRANCH  26  29
ENDBRANCH  25  26
ENDBRANCH  24  25
ENDBRANCH   5  24
BRANCH   4  31
ATOM     31  O   UNL     1      19.465   9.540  29.233  1.00  0.00    -0.387 OA
ATOM     32  H   UNL     1      20.277   9.846  28.772  1.00  0.00    +0.211 HD
ENDBRANCH   4  31
TORSDOF 11
ENDMDL
MODEL 4
REMARK VINA RESULT:    -7.217      2.390      6.407
REMARK INTER + INTRA:         -11.697
REMARK INTER:                  -9.882
REMARK INTRA:                  -1.815
REMARK UNBOUND:                -1.104
REMARK SMILES O=S(=O)(O)OC[C@@H]1O[C@H](O[C@H]2[C@@H]3OC[C@H]2O[C@@H](O)[C@H]3O)[C@@H](O)[C@H](O)[C@@H]1O
REMARK SMILES IDX 9 1 21 2 23 3 25 4 7 5 8 6 10 7 11 8 14 9 15 10 13 11 16 12
REMARK SMILES IDX 12 13 17 14 19 15 18 16 20 18 22 20 24 22 6 24 5 25 2 26
REMARK SMILES IDX 1 27 3 28 4 29 26 31
REMARK H PARENT 18 17 20 19 22 21 24 23 4 30 26 32
ROOT
ATOM      1  C   UNL     1      18.930   5.733  26.148  1.00  0.00    +0.282 C 
ATOM      2  C   UNL     1      17.494   5.174  26.176  1.00  0.00    +0.202 C 
ATOM      3  C   UNL     1      17.252   4.423  24.878  1.00  0.00    +0.179 C 
ATOM      4  C   UNL     1      18.187   3.212  24.813  1.00  0.00    +0.177 C 
ATOM      5  C   UNL     1      19.583   3.495  25.417  1.00  0.00    +0.180 C 
ATOM      6  O   UNL     1      19.878   4.903  25.479  1.00  0.00    -0.341 OA
ENDROOT
BRANCH   1   7
ATOM      7  O   UNL     1      19.305   6.044  27.493  1.00  0.00    -0.341 OA
BRANCH   7   8
ATOM      8  C   UNL     1      19.598   7.425  27.682  1.00  0.00    +0.184 C 
ATOM      9  C   UNL     1      20.655   9.192  28.802  1.00  0.00    +0.195 C 
ATOM     10  C   UNL     1      20.844   7.703  28.509  1.00  0.00    +0.179 C 
ATOM     11  O   UNL     1      19.222   9.398  28.900  1.00  0.00    -0.370 OA
ATOM     12  O   UNL     1      20.854   6.886  29.693  1.00  0.00    -0.342 OA
ATOM     13  C   UNL     1      18.599   8.122  28.598  1.00  0.00    +0.184 C 
ATOM     14  C   UNL     1      19.759   7.059  30.587  1.00  0.00    +0.279 C 
ATOM     15  C   UNL     1      18.406   7.310  29.886  1.00  0.00    +0.202 C 
BRANCH  14  16
ATOM     16  O   UNL     1      20.063   8.128  31.479  1.00  0.00    -0.366 OA
ATOM     17  H   UNL     1      19.462   7.994  32.234  1.00  0.00    +0.213 HD
ENDBRANCH  14  16
BRANCH  15  18
ATOM     18  O   UNL     1      17.493   7.981  30.765  1.00  0.00    -0.385 OA
ATOM     19  H   UNL     1      17.783   7.707  31.662  1.00  0.00    +0.211 HD
ENDBRANCH  15  18
ENDBRANCH   7   8
ENDBRANCH   1   7
BRANCH   2  20
ATOM     20  O   UNL     1      16.523   6.227  26.300  1.00  0.00    -0.385 OA
ATOM     21  H   UNL     1      15.900   5.939  26.996  1.00  0.00    +0.211 HD
ENDBRANCH   2  20
BRANCH   3  22
ATOM     22  O   UNL     1      15.889   3.973  24.805  1.00  0.00    -0.387 OA
ATOM     23  H   UNL     1      15.407   4.531  25.451  1.00  0.00    +0.211 HD
ENDBRANCH   3  22
BRANCH   5  24
ATOM     24  C   UNL     1      19.871   2.789  26.754  1.00  0.00    +0.220 C 
BRANCH  24  25
ATOM     25  O   UNL     1      21.283   2.731  26.941  1.00  0.00    -0.245 OA
BRANCH  25  26
ATOM     26  S   UNL     1      21.924   3.612  28.145  1.00  0.00    +0.397 S 
ATOM     27  O   UNL     1      22.512   4.821  27.613  1.00  0.00    -0.169 OA
ATOM     28  O   UNL     1      22.652   2.723  29.021  1.00  0.00    -0.169 OA
BRANCH  26  29
ATOM     29  O   UNL     1      20.616   4.034  28.983  1.00  0.00    -0.264 OA
ATOM     30  H   UNL     1      19.861   4.019  28.360  1.00  0.00    +0.236 HD
ENDBRANCH  26  29
ENDBRANCH  25  26
ENDBRANCH  24  25
ENDBRANCH   5  24
BRANCH   4  31
ATOM     31  O   UNL     1      17.556   2.097  25.453  1.00  0.00    -0.387 OA
ATOM     32  H   UNL     1      16.786   2.483  25.927  1.00  0.00    +0.211 HD
ENDBRANCH   4  31
TORSDOF 11
ENDMDL
MODEL 5
REMARK VINA RESULT:    -7.176      2.237      4.637
REMARK INTER + INTRA:         -11.637
REMARK INTER:                 -10.333
REMARK INTRA:                  -1.303
REMARK UNBOUND:                -1.104
REMARK SMILES O=S(=O)(O)OC[C@@H]1O[C@H](O[C@H]2[C@@H]3OC[C@H]2O[C@@H](O)[C@H]3O)[C@@H](O)[C@H](O)[C@@H]1O
REMARK SMILES IDX 9 1 21 2 23 3 25 4 7 5 8 6 10 7 11 8 14 9 15 10 13 11 16 12
REMARK SMILES IDX 12 13 17 14 19 15 18 16 20 18 22 20 24 22 6 24 5 25 2 26
REMARK SMILES IDX 1 27 3 28 4 29 26 31
REMARK H PARENT 18 17 20 19 22 21 24 23 4 30 26 32
ROOT
ATOM      1  C   UNL     1      18.069   2.820  27.409  1.00  0.00    +0.282 C 
ATOM      2  C   UNL     1      16.938   2.300  26.501  1.00  0.00    +0.202 C 
ATOM      3  C   UNL     1      15.621   2.472  27.239  1.00  0.00    +0.179 C 
ATOM      4  C   UNL     1      15.353   3.964  27.454  1.00  0.00    +0.177 C 
ATOM      5  C   UNL     1      16.639   4.771  27.752  1.00  0.00    +0.180 C 
ATOM      6  O   UNL     1      17.713   3.935  28.223  1.00  0.00    -0.341 OA
ENDROOT
BRANCH   1   7
ATOM      7  O   UNL     1      19.212   3.067  26.585  1.00  0.00    -0.341 OA
BRANCH   7   8
ATOM      8  C   UNL     1      20.246   2.105  26.767  1.00  0.00    +0.184 C 
ATOM      9  C   UNL     1      22.163   1.289  27.841  1.00  0.00    +0.195 C 
ATOM     10  C   UNL     1      20.939   2.163  28.119  1.00  0.00    +0.179 C 
ATOM     11  O   UNL     1      22.494   1.504  26.445  1.00  0.00    -0.370 OA
ATOM     12  O   UNL     1      21.273   3.521  28.455  1.00  0.00    -0.342 OA
ATOM     13  C   UNL     1      21.475   2.386  25.909  1.00  0.00    +0.184 C 
ATOM     14  C   UNL     1      22.144   4.197  27.554  1.00  0.00    +0.279 C 
ATOM     15  C   UNL     1      21.906   3.851  26.067  1.00  0.00    +0.202 C 
BRANCH  14  16
ATOM     16  O   UNL     1      23.492   3.911  27.921  1.00  0.00    -0.366 OA
ATOM     17  H   UNL     1      23.926   4.782  27.951  1.00  0.00    +0.213 HD
ENDBRANCH  14  16
BRANCH  15  18
ATOM     18  O   UNL     1      23.082   4.110  25.289  1.00  0.00    -0.385 OA
ATOM     19  H   UNL     1      23.157   5.088  25.293  1.00  0.00    +0.211 HD
ENDBRANCH  15  18
ENDBRANCH   7   8
ENDBRANCH   1   7
BRANCH   2  20
ATOM     20  O   UNL     1      17.120   0.911  26.177  1.00  0.00    -0.385 OA
ATOM     21  H   UNL     1      16.287   0.620  25.756  1.00  0.00    +0.211 HD
ENDBRANCH   2  20
BRANCH   3  22
ATOM     22  O   UNL     1      14.542   1.902  26.479  1.00  0.00    -0.387 OA
ATOM     23  H   UNL     1      13.851   2.597  26.466  1.00  0.00    +0.211 HD
ENDBRANCH   3  22
BRANCH   5  24
ATOM     24  C   UNL     1      17.097   5.711  26.622  1.00  0.00    +0.220 C 
BRANCH  24  25
ATOM     25  O   UNL     1      17.257   7.021  27.160  1.00  0.00    -0.245 OA
BRANCH  25  26
ATOM     26  S   UNL     1      18.725   7.439  27.713  1.00  0.00    +0.397 S 
ATOM     27  O   UNL     1      18.664   7.689  29.135  1.00  0.00    -0.169 OA
ATOM     28  O   UNL     1      19.306   8.386  26.789  1.00  0.00    -0.169 OA
BRANCH  26  29
ATOM     29  O   UNL     1      19.563   6.083  27.491  1.00  0.00    -0.264 OA
ATOM     30  H   UNL     1      18.928   5.400  27.196  1.00  0.00    +0.236 HD
ENDBRANCH  26  29
ENDBRANCH  25  26
ENDBRANCH  24  25
ENDBRANCH   5  24
BRANCH   4  31
ATOM     31  O   UNL     1      14.661   4.486  26.313  1.00  0.00    -0.387 OA
ATOM     32  H   UNL     1      13.811   4.828  26.670  1.00  0.00    +0.211 HD
ENDBRANCH   4  31
TORSDOF 11
ENDMDL
MODEL 6
REMARK VINA RESULT:    -6.919      2.671      4.872
REMARK INTER + INTRA:         -11.259
REMARK INTER:                 -10.176
REMARK INTRA:                  -1.083
REMARK UNBOUND:                -1.104
REMARK SMILES O=S(=O)(O)OC[C@@H]1O[C@H](O[C@H]2[C@@H]3OC[C@H]2O[C@@H](O)[C@H]3O)[C@@H](O)[C@H](O)[C@@H]1O
REMARK SMILES IDX 9 1 21 2 23 3 25 4 7 5 8 6 10 7 11 8 14 9 15 10 13 11 16 12
REMARK SMILES IDX 12 13 17 14 19 15 18 16 20 18 22 20 24 22 6 24 5 25 2 26
REMARK SMILES IDX 1 27 3 28 4 29 26 31
REMARK H PARENT 18 17 20 19 22 21 24 23 4 30 26 32
ROOT
ATOM      1  C   UNL     1      17.897   5.962  29.168  1.00  0.00    +0.282 C 
ATOM      2  C   UNL     1      17.620   7.440  29.501  1.00  0.00    +0.202 C 
ATOM      3  C   UNL     1      18.549   7.854  30.630  1.00  0.00    +0.179 C 
ATOM      4  C   UNL     1      19.999   7.784  30.143  1.00  0.00    +0.177 C 
ATOM      5  C   UNL     1      20.256   6.597  29.184  1.00  0.00    +0.180 C 
ATOM      6  O   UNL     1      19.260   5.565  29.310  1.00  0.00    -0.341 OA
ENDROOT
BRANCH   1   7
ATOM      7  O   UNL     1      17.368   5.700  27.865  1.00  0.00    -0.341 OA
BRANCH   7   8
ATOM      8  C   UNL     1      16.637   4.480  27.797  1.00  0.00    +0.184 C 
ATOM      9  C   UNL     1      16.432   2.205  27.268  1.00  0.00    +0.195 C 
ATOM     10  C   UNL     1      17.496   3.231  27.662  1.00  0.00    +0.179 C 
ATOM     11  O   UNL     1      15.450   2.934  26.487  1.00  0.00    -0.370 OA
ATOM     12  O   UNL     1      18.505   3.422  26.655  1.00  0.00    -0.342 OA
ATOM     13  C   UNL     1      15.865   4.324  26.492  1.00  0.00    +0.184 C 
ATOM     14  C   UNL     1      18.038   3.704  25.340  1.00  0.00    +0.279 C 
ATOM     15  C   UNL     1      16.784   4.606  25.296  1.00  0.00    +0.202 C 
BRANCH  14  16
ATOM     16  O   UNL     1      17.786   2.471  24.670  1.00  0.00    -0.366 OA
ATOM     17  H   UNL     1      18.594   2.304  24.154  1.00  0.00    +0.213 HD
ENDBRANCH  14  16
BRANCH  15  18
ATOM     18  O   UNL     1      16.070   4.426  24.066  1.00  0.00    -0.385 OA
ATOM     19  H   UNL     1      15.245   4.943  24.194  1.00  0.00    +0.211 HD
ENDBRANCH  15  18
ENDBRANCH   7   8
ENDBRANCH   1   7
BRANCH   2  20
ATOM     20  O   UNL     1      16.258   7.640  29.914  1.00  0.00    -0.385 OA
ATOM     21  H   UNL     1      15.990   6.818  30.370  1.00  0.00    +0.211 HD
ENDBRANCH   2  20
BRANCH   3  22
ATOM     22  O   UNL     1      18.257   9.196  31.054  1.00  0.00    -0.387 OA
ATOM     23  H   UNL     1      17.336   9.357  30.759  1.00  0.00    +0.211 HD
ENDBRANCH   3  22
BRANCH   5  24
ATOM     24  C   UNL     1      20.496   6.986  27.714  1.00  0.00    +0.220 C 
BRANCH  24  25
ATOM     25  O   UNL     1      20.458   5.802  26.920  1.00  0.00    -0.245 OA
BRANCH  25  26
ATOM     26  S   UNL     1      21.836   4.962  26.746  1.00  0.00    +0.397 S 
ATOM     27  O   UNL     1      22.034   4.096  27.886  1.00  0.00    -0.169 OA
ATOM     28  O   UNL     1      22.862   5.866  26.278  1.00  0.00    -0.169 OA
BRANCH  26  29
ATOM     29  O   UNL     1      21.501   4.031  25.477  1.00  0.00    -0.264 OA
ATOM     30  H   UNL     1      20.823   3.387  25.767  1.00  0.00    +0.236 HD
ENDBRANCH  26  29
ENDBRANCH  25  26
ENDBRANCH  24  25
ENDBRANCH   5  24
BRANCH   4  31
ATOM     31  O   UNL     1      20.352   9.032  29.537  1.00  0.00    -0.387 OA
ATOM     32  H   UNL     1      21.296   9.170  29.775  1.00  0.00    +0.211 HD
ENDBRANCH   4  31
TORSDOF 11
ENDMDL
MODEL 7
REMARK VINA RESULT:    -6.904      1.344      1.614
REMARK INTER + INTRA:         -11.237
REMARK INTER:                 -10.227
REMARK INTRA:                  -1.009
REMARK UNBOUND:                -1.104
REMARK SMILES O=S(=O)(O)OC[C@@H]1O[C@H](O[C@H]2[C@@H]3OC[C@H]2O[C@@H](O)[C@H]3O)[C@@H](O)[C@H](O)[C@@H]1O
REMARK SMILES IDX 9 1 21 2 23 3 25 4 7 5 8 6 10 7 11 8 14 9 15 10 13 11 16 12
REMARK SMILES IDX 12 13 17 14 19 15 18 16 20 18 22 20 24 22 6 24 5 25 2 26
REMARK SMILES IDX 1 27 3 28 4 29 26 31
REMARK H PARENT 18 17 20 19 22 21 24 23 4 30 26 32
ROOT
ATOM      1  C   UNL     1      19.930   6.388  28.967  1.00  0.00    +0.282 C 
ATOM      2  C   UNL     1      19.241   6.612  30.326  1.00  0.00    +0.202 C 
ATOM      3  C   UNL     1      18.480   7.925  30.261  1.00  0.00    +0.179 C 
ATOM      4  C   UNL     1      17.361   7.810  29.222  1.00  0.00    +0.177 C 
ATOM      5  C   UNL     1      17.768   6.968  27.989  1.00  0.00    +0.180 C 
ATOM      6  O   UNL     1      19.197   6.867  27.841  1.00  0.00    -0.341 OA
ENDROOT
BRANCH   1   7
ATOM      7  O   UNL     1      20.266   5.001  28.869  1.00  0.00    -0.341 OA
BRANCH   7   8
ATOM      8  C   UNL     1      20.669   4.617  27.559  1.00  0.00    +0.184 C 
ATOM      9  C   UNL     1      20.640   3.172  25.713  1.00  0.00    +0.195 C 
ATOM     10  C   UNL     1      19.755   3.607  26.882  1.00  0.00    +0.179 C 
ATOM     11  O   UNL     1      22.004   3.241  26.203  1.00  0.00    -0.370 OA
ATOM     12  O   UNL     1      19.436   2.534  27.786  1.00  0.00    -0.342 OA
ATOM     13  C   UNL     1      21.934   3.766  27.553  1.00  0.00    +0.184 C 
ATOM     14  C   UNL     1      20.537   1.777  28.279  1.00  0.00    +0.279 C 
ATOM     15  C   UNL     1      21.803   2.617  28.562  1.00  0.00    +0.202 C 
BRANCH  14  16
ATOM     16  O   UNL     1      20.829   0.736  27.351  1.00  0.00    -0.366 OA
ATOM     17  H   UNL     1      21.019  -0.040  27.906  1.00  0.00    +0.213 HD
ENDBRANCH  14  16
BRANCH  15  18
ATOM     18  O   UNL     1      22.977   1.795  28.534  1.00  0.00    -0.385 OA
ATOM     19  H   UNL     1      23.278   1.780  29.468  1.00  0.00    +0.211 HD
ENDBRANCH  15  18
ENDBRANCH   7   8
ENDBRANCH   1   7
BRANCH   2  20
ATOM     20  O   UNL     1      20.198   6.674  31.397  1.00  0.00    -0.385 OA
ATOM     21  H   UNL     1      20.052   5.873  31.938  1.00  0.00    +0.211 HD
ENDBRANCH   2  20
BRANCH   3  22
ATOM     22  O   UNL     1      17.906   8.237  31.542  1.00  0.00    -0.387 OA
ATOM     23  H   UNL     1      18.018   9.206  31.637  1.00  0.00    +0.211 HD
ENDBRANCH   3  22
BRANCH   5  24
ATOM     24  C   UNL     1      17.082   5.594  27.882  1.00  0.00    +0.220 C 
BRANCH  24  25
ATOM     25  O   UNL     1      16.615   5.424  26.546  1.00  0.00    -0.245 OA
BRANCH  25  26
ATOM     26  S   UNL     1      15.923   4.007  26.160  1.00  0.00    +0.397 S 
ATOM     27  O   UNL     1      14.587   4.231  25.655  1.00  0.00    -0.169 OA
ATOM     28  O   UNL     1      16.198   3.064  27.220  1.00  0.00    -0.169 OA
BRANCH  26  29
ATOM     29  O   UNL     1      16.835   3.515  24.928  1.00  0.00    -0.264 OA
ATOM     30  H   UNL     1      16.290   2.899  24.398  1.00  0.00    +0.236 HD
ENDBRANCH  26  29
ENDBRANCH  25  26
ENDBRANCH  24  25
ENDBRANCH   5  24
BRANCH   4  31
ATOM     31  O   UNL     1      16.188   7.283  29.852  1.00  0.00    -0.387 OA
ATOM     32  H   UNL     1      16.063   6.395  29.448  1.00  0.00    +0.211 HD
ENDBRANCH   4  31
TORSDOF 11
ENDMDL
MODEL 8
REMARK VINA RESULT:    -6.500      1.678      5.611
REMARK INTER + INTRA:         -10.644
REMARK INTER:                  -9.646
REMARK INTRA:                  -0.999
REMARK UNBOUND:                -1.104
REMARK SMILES O=S(=O)(O)OC[C@@H]1O[C@H](O[C@H]2[C@@H]3OC[C@H]2O[C@@H](O)[C@H]3O)[C@@H](O)[C@H](O)[C@@H]1O
REMARK SMILES IDX 9 1 21 2 23 3 25 4 7 5 8 6 10 7 11 8 14 9 15 10 13 11 16 12
REMARK SMILES IDX 12 13 17 14 19 15 18 16 20 18 22 20 24 22 6 24 5 25 2 26
REMARK SMILES IDX 1 27 3 28 4 29 26 31
REMARK H PARENT 18 17 20 19 22 21 24 23 4 30 26 32
ROOT
ATOM      1  C   UNL     1      20.391   4.051  27.168  1.00  0.00    +0.282 C 
ATOM      2  C   UNL     1      20.834   3.597  25.763  1.00  0.00    +0.202 C 
ATOM      3  C   UNL     1      20.978   2.085  25.777  1.00  0.00    +0.179 C 
ATOM      4  C   UNL     1      19.608   1.448  26.024  1.00  0.00    +0.177 C 
ATOM      5  C   UNL     1      18.739   2.257  27.017  1.00  0.00    +0.180 C 
ATOM      6  O   UNL     1      19.524   3.140  27.841  1.00  0.00    -0.341 OA
ENDROOT
BRANCH   1   7
ATOM      7  O   UNL     1      19.842   5.366  27.050  1.00  0.00    -0.341 OA
BRANCH   7   8
ATOM      8  C   UNL     1      19.062   5.746  28.179  1.00  0.00    +0.184 C 
ATOM      9  C   UNL     1      17.687   7.240  29.350  1.00  0.00    +0.195 C 
ATOM     10  C   UNL     1      18.064   6.863  27.916  1.00  0.00    +0.179 C 
ATOM     11  O   UNL     1      18.881   7.019  30.144  1.00  0.00    -0.370 OA
ATOM     12  O   UNL     1      18.690   7.936  27.190  1.00  0.00    -0.342 OA
ATOM     13  C   UNL     1      19.878   6.464  29.248  1.00  0.00    +0.184 C 
ATOM     14  C   UNL     1      19.800   8.562  27.824  1.00  0.00    +0.279 C 
ATOM     15  C   UNL     1      20.706   7.591  28.614  1.00  0.00    +0.202 C 
BRANCH  14  16
ATOM     16  O   UNL     1      19.317   9.595  28.678  1.00  0.00    -0.366 OA
ATOM     17  H   UNL     1      20.120  10.033  29.011  1.00  0.00    +0.213 HD
ENDBRANCH  14  16
BRANCH  15  18
ATOM     18  O   UNL     1      21.448   8.290  29.621  1.00  0.00    -0.385 OA
ATOM     19  H   UNL     1      22.252   7.743  29.746  1.00  0.00    +0.211 HD
ENDBRANCH  15  18
ENDBRANCH   7   8
ENDBRANCH   1   7
BRANCH   2  20
ATOM     20  O   UNL     1      22.092   4.188  25.393  1.00  0.00    -0.385 OA
ATOM     21  H   UNL     1      22.180   4.055  24.429  1.00  0.00    +0.211 HD
ENDBRANCH   2  20
BRANCH   3  22
ATOM     22  O   UNL     1      21.496   1.619  24.519  1.00  0.00    -0.387 OA
ATOM     23  H   UNL     1      22.381   2.035  24.443  1.00  0.00    +0.211 HD
ENDBRANCH   3  22
BRANCH   5  24
ATOM     24  C   UNL     1      17.533   2.980  26.389  1.00  0.00    +0.220 C 
BRANCH  24  25
ATOM     25  O   UNL     1      16.393   2.128  26.488  1.00  0.00    -0.245 OA
BRANCH  25  26
ATOM     26  S   UNL     1      14.948   2.824  26.738  1.00  0.00    +0.397 S 
ATOM     27  O   UNL     1      15.069   3.873  27.725  1.00  0.00    -0.169 OA
ATOM     28  O   UNL     1      13.954   1.780  26.840  1.00  0.00    -0.169 OA
BRANCH  26  29
ATOM     29  O   UNL     1      14.664   3.523  25.316  1.00  0.00    -0.264 OA
ATOM     30  H   UNL     1      13.716   3.385  25.115  1.00  0.00    +0.236 HD
ENDBRANCH  26  29
ENDBRANCH  25  26
ENDBRANCH  24  25
ENDBRANCH   5  24
BRANCH   4  31
ATOM     31  O   UNL     1      18.941   1.268  24.770  1.00  0.00    -0.387 OA
ATOM     32  H   UNL     1      18.624   2.166  24.523  1.00  0.00    +0.211 HD
ENDBRANCH   4  31
TORSDOF 11
ENDMDL
MODEL 9
REMARK VINA RESULT:    -6.208     32.559     35.406
REMARK INTER + INTRA:         -10.215
REMARK INTER:                  -9.275
REMARK INTRA:                  -0.940
REMARK UNBOUND:                -1.104
REMARK SMILES O=S(=O)(O)OC[C@@H]1O[C@H](O[C@H]2[C@@H]3OC[C@H]2O[C@@H](O)[C@H]3O)[C@@H](O)[C@H](O)[C@@H]1O
REMARK SMILES IDX 9 1 21 2 23 3 25 4 7 5 8 6 10 7 11 8 14 9 15 10 13 11 16 12
REMARK SMILES IDX 12 13 17 14 19 15 18 16 20 18 22 20 24 22 6 24 5 25 2 26
REMARK SMILES IDX 1 27 3 28 4 29 26 31
REMARK H PARENT 18 17 20 19 22 21 24 23 4 30 26 32
ROOT
ATOM      1  C   UNL     1      -9.541  -4.237   8.170  1.00  0.00    +0.282 C 
ATOM      2  C   UNL     1      -8.005  -4.337   8.249  1.00  0.00    +0.202 C 
ATOM      3  C   UNL     1      -7.472  -3.022   8.792  1.00  0.00    +0.179 C 
ATOM      4  C   UNL     1      -7.968  -2.829  10.228  1.00  0.00    +0.177 C 
ATOM      5  C   UNL     1      -9.410  -3.348  10.442  1.00  0.00    +0.180 C 
ATOM      6  O   UNL     1     -10.141  -3.462   9.206  1.00  0.00    -0.341 OA
ENDROOT
BRANCH   1   7
ATOM      7  O   UNL     1     -10.062  -5.567   8.088  1.00  0.00    -0.341 OA
BRANCH   7   8
ATOM      8  C   UNL     1     -10.846  -5.785   6.920  1.00  0.00    +0.184 C 
ATOM      9  C   UNL     1     -12.233  -7.099   5.562  1.00  0.00    +0.195 C 
ATOM     10  C   UNL     1     -11.852  -6.920   7.032  1.00  0.00    +0.179 C 
ATOM     11  O   UNL     1     -11.039  -6.782   4.802  1.00  0.00    -0.370 OA
ATOM     12  O   UNL     1     -11.233  -8.085   7.606  1.00  0.00    -0.342 OA
ATOM     13  C   UNL     1     -10.037  -6.359   5.763  1.00  0.00    +0.184 C 
ATOM     14  C   UNL     1     -10.128  -8.628   6.892  1.00  0.00    +0.279 C 
ATOM     15  C   UNL     1      -9.216  -7.567   6.238  1.00  0.00    +0.202 C 
BRANCH  14  16
ATOM     16  O   UNL     1     -10.621  -9.534   5.908  1.00  0.00    -0.366 OA
ATOM     17  H   UNL     1     -11.476  -9.157   5.635  1.00  0.00    +0.213 HD
ENDBRANCH  14  16
BRANCH  15  18
ATOM     18  O   UNL     1      -8.481  -8.130   5.144  1.00  0.00    -0.385 OA
ATOM     19  H   UNL     1      -7.544  -7.950   5.371  1.00  0.00    +0.211 HD
ENDBRANCH  15  18
ENDBRANCH   7   8
ENDBRANCH   1   7
BRANCH   2  20
ATOM     20  O   UNL     1      -7.427  -4.583   6.956  1.00  0.00    -0.385 OA
ATOM     21  H   UNL     1      -6.941  -3.769   6.717  1.00  0.00    +0.211 HD
ENDBRANCH   2  20
BRANCH   3  22
ATOM     22  O   UNL     1      -6.034  -3.022   8.784  1.00  0.00    -0.387 OA
ATOM     23  H   UNL     1      -5.781  -2.223   9.293  1.00  0.00    +0.211 HD
ENDBRANCH   3  22
BRANCH   5  24
ATOM     24  C   UNL     1      -9.524  -4.624  11.296  1.00  0.00    +0.220 C 
BRANCH  24  25
ATOM     25  O   UNL     1      -8.460  -5.504  10.939  1.00  0.00    -0.245 OA
BRANCH  25  26
ATOM     26  S   UNL     1      -8.658  -7.088  11.231  1.00  0.00    +0.397 S 
ATOM     27  O   UNL     1      -9.657  -7.280  12.258  1.00  0.00    -0.169 OA
ATOM     28  O   UNL     1      -7.352  -7.703  11.302  1.00  0.00    -0.169 OA
BRANCH  26  29
ATOM     29  O   UNL     1      -9.281  -7.609   9.841  1.00  0.00    -0.264 OA
ATOM     30  H   UNL     1      -9.729  -6.844   9.425  1.00  0.00    +0.236 HD
ENDBRANCH  26  29
ENDBRANCH  25  26
ENDBRANCH  24  25
ENDBRANCH   5  24
BRANCH   4  31
ATOM     31  O   UNL     1      -7.047  -3.454  11.130  1.00  0.00    -0.387 OA
ATOM     32  H   UNL     1      -7.581  -3.663  11.928  1.00  0.00    +0.211 HD
ENDBRANCH   4  31
TORSDOF 11
ENDMDL
