MODEL 1
REMARK VINA RESULT:    -8.540      0.000      0.000
REMARK INTER + INTRA:         -22.004
REMARK INTER:                 -18.525
REMARK INTRA:                  -3.478
REMARK UNBOUND:                -3.478
REMARK SMILES OC[C@@H]1O[C@H](O[C@H]2[C@@H]3OC[C@H]2O[C@@H](O[C@@H]2[C@H](O)[C@@H](O[C@@H]4[C@@H]5OC[C@H]4O[C@H](O[C@@H]4[C@@H](O)[C@H](O)O[C@@H](CO)[C@H]4O)[C@@H]5O)O[C@H](CO)[C@H]2O)[C@H]3O)[C@@H](O)[C@H](O[C@@H]2O[C@@H]3CO[C@H]([C@H]2O)[C@@H]3O)[C@H]1O
REMARK SMILES IDX 15 1 45 2 42 3 41 4 18 5 16 6 14 7 13 8 7 9 11 10 8 11 10 12
REMARK SMILES IDX 12 13 9 14 47 15 6 16 5 17 51 18 63 19 49 20 3 21 4 22 52 23
REMARK SMILES IDX 53 24 56 25 55 26 57 27 61 28 54 29 58 30 59 31 62 32 60 34
REMARK SMILES IDX 64 36 50 38 2 40 1 41 48 43 46 45 17 47 43 49 44 50 19 52
REMARK SMILES IDX 20 53 24 54 21 55 23 56 25 57 22 58 39 59 26 60 40 61 27 63
REMARK SMILES IDX 28 64 37 65 29 66 34 67 31 68 33 69 38 70 30 72 35 74 36 75
REMARK SMILES IDX 32 77
REMARK H PARENT 62 33 60 35 64 37 50 39 1 42 48 44 46 46 17 48 44 51 40 62
REMARK H PARENT 38 71 30 73 36 76 32 78
ROOT
ATOM      1  C   UNL     1      -1.529  13.363 -14.066  1.00  0.00    +0.186 C 
ATOM      2  C   UNL     1      -2.517  14.520 -13.811  1.00  0.00    +0.177 C 
ATOM      3  C   UNL     1      -3.197  14.418 -12.428  1.00  0.00    +0.178 C 
ATOM      4  O   UNL     1      -3.152  13.086 -11.914  1.00  0.00    -0.341 OA
ATOM      5  C   UNL     1      -1.819  12.644 -11.649  1.00  0.00    +0.282 C 
ATOM      6  C   UNL     1      -0.802  13.055 -12.750  1.00  0.00    +0.202 C 
ENDROOT
BRANCH   1   7
ATOM      7  O   UNL     1      -2.108  12.116 -14.519  1.00  0.00    -0.341 OA
BRANCH   7   8
ATOM      8  C   UNL     1      -1.355  11.460 -15.548  1.00  0.00    +0.282 C 
ATOM      9  C   UNL     1      -2.543   9.676 -17.549  1.00  0.00    +0.184 C 
ATOM     10  C   UNL     1      -2.990  11.113 -17.316  1.00  0.00    +0.179 C 
ATOM     11  C   UNL     1      -2.524   9.254 -16.082  1.00  0.00    +0.184 C 
ATOM     12  C   UNL     1      -4.126  10.911 -16.312  1.00  0.00    +0.195 C 
ATOM     13  O   UNL     1      -1.869  11.879 -16.823  1.00  0.00    -0.341 OA
ATOM     14  O   UNL     1      -3.757   9.762 -15.516  1.00  0.00    -0.370 OA
ATOM     15  C   UNL     1      -1.345   9.918 -15.355  1.00  0.00    +0.202 C 
BRANCH   9  16
ATOM     16  O   UNL     1      -1.260   9.534 -18.144  1.00  0.00    -0.341 OA
BRANCH  16  17
ATOM     17  C   UNL     1      -1.270   9.376 -19.576  1.00  0.00    +0.282 C 
ATOM     18  C   UNL     1      -0.936   7.502 -21.307  1.00  0.00    +0.186 C 
ATOM     19  C   UNL     1      -0.186   8.616 -22.052  1.00  0.00    +0.177 C 
ATOM     20  C   UNL     1      -1.214   7.856 -19.837  1.00  0.00    +0.202 C 
ATOM     21  C   UNL     1       0.627   9.510 -21.116  1.00  0.00    +0.178 C 
ATOM     22  O   UNL     1      -0.190  10.126 -20.118  1.00  0.00    -0.341 OA
BRANCH  18  23
ATOM     23  O   UNL     1      -0.118   6.312 -21.382  1.00  0.00    -0.341 OA
BRANCH  23  24
ATOM     24  C   UNL     1      -0.535   5.385 -22.394  1.00  0.00    +0.282 C 
ATOM     25  C   UNL     1      -1.267   3.865 -19.976  1.00  0.00    +0.195 C 
ATOM     26  C   UNL     1      -2.019   3.782 -21.303  1.00  0.00    +0.178 C 
ATOM     27  O   UNL     1       0.085   3.433 -20.256  1.00  0.00    -0.370 OA
ATOM     28  C   UNL     1      -1.314   2.606 -21.951  1.00  0.00    +0.177 C 
ATOM     29  O   UNL     1      -1.881   4.951 -22.131  1.00  0.00    -0.341 OA
ATOM     30  C   UNL     1       0.117   3.036 -21.645  1.00  0.00    +0.183 C 
ATOM     31  C   UNL     1       0.507   4.236 -22.520  1.00  0.00    +0.202 C 
BRANCH  28  32
ATOM     32  O   UNL     1      -1.588   2.467 -23.339  1.00  0.00    -0.387 OA
ATOM     33  H   UNL     1      -1.663   3.365 -23.713  1.00  0.00    +0.211 HD
ENDBRANCH  28  32
BRANCH  31  34
ATOM     34  O   UNL     1       0.632   3.820 -23.892  1.00  0.00    -0.385 OA
ATOM     35  H   UNL     1      -0.176   4.135 -24.354  1.00  0.00    +0.211 HD
ENDBRANCH  31  34
ENDBRANCH  23  24
ENDBRANCH  18  23
BRANCH  19  36
ATOM     36  O   UNL     1      -1.172   9.427 -22.719  1.00  0.00    -0.387 OA
ATOM     37  H   UNL     1      -1.541   8.906 -23.456  1.00  0.00    +0.211 HD
ENDBRANCH  19  36
BRANCH  20  38
ATOM     38  O   UNL     1      -2.441   7.229 -19.414  1.00  0.00    -0.385 OA
ATOM     39  H   UNL     1      -3.142   7.906 -19.519  1.00  0.00    +0.211 HD
ENDBRANCH  20  38
BRANCH  21  40
ATOM     40  C   UNL     1       1.838   8.835 -20.457  1.00  0.00    +0.191 C 
BRANCH  40  41
ATOM     41  O   UNL     1       2.376   7.850 -21.352  1.00  0.00    -0.394 OA
ATOM     42  H   UNL     1       2.919   7.258 -20.783  1.00  0.00    +0.210 HD
ENDBRANCH  40  41
ENDBRANCH  21  40
ENDBRANCH  16  17
ENDBRANCH   9  16
BRANCH  15  43
ATOM     43  O   UNL     1      -1.358   9.571 -13.964  1.00  0.00    -0.385 OA
ATOM     44  H   UNL     1      -2.297   9.381 -13.764  1.00  0.00    +0.211 HD
ENDBRANCH  15  43
ENDBRANCH   7   8
ENDBRANCH   1   7
BRANCH   2  45
ATOM     45  O   UNL     1      -1.811  15.769 -13.889  1.00  0.00    -0.387 OA
ATOM     46  H   UNL     1      -0.933  15.606 -13.485  1.00  0.00    +0.211 HD
ENDBRANCH   2  45
BRANCH   6  47
ATOM     47  O   UNL     1       0.160  12.004 -12.959  1.00  0.00    -0.385 OA
ATOM     48  H   UNL     1      -0.296  11.176 -12.712  1.00  0.00    +0.211 HD
ENDBRANCH   6  47
BRANCH   3  49
ATOM     49  C   UNL     1      -4.664  14.859 -12.507  1.00  0.00    +0.191 C 
BRANCH  49  50
ATOM     50  O   UNL     1      -5.510  13.994 -11.754  1.00  0.00    -0.394 OA
ATOM     51  H   UNL     1      -5.705  13.223 -12.333  1.00  0.00    +0.210 HD
ENDBRANCH  49  50
ENDBRANCH   3  49
BRANCH   5  52
ATOM     52  O   UNL     1      -1.355  13.148 -10.391  1.00  0.00    -0.341 OA
BRANCH  52  53
ATOM     53  C   UNL     1      -1.051  12.124  -9.440  1.00  0.00    +0.184 C 
ATOM     54  C   UNL     1       0.403  11.717  -9.611  1.00  0.00    +0.179 C 
ATOM     55  C   UNL     1      -0.937  12.632  -7.998  1.00  0.00    +0.184 C 
ATOM     56  C   UNL     1       1.121  12.942  -9.039  1.00  0.00    +0.195 C 
ATOM     57  O   UNL     1       0.663  10.510  -8.859  1.00  0.00    -0.341 OA
ATOM     58  O   UNL     1       0.293  13.404  -7.943  1.00  0.00    -0.370 OA
ATOM     59  C   UNL     1      -0.778  11.428  -7.062  1.00  0.00    +0.202 C 
ATOM     60  C   UNL     1       0.509  10.651  -7.442  1.00  0.00    +0.282 C 
BRANCH  59  61
ATOM     61  O   UNL     1      -1.938  10.584  -7.153  1.00  0.00    -0.385 OA
ATOM     62  H   UNL     1      -1.848  10.106  -8.001  1.00  0.00    +0.211 HD
ENDBRANCH  59  61
BRANCH  60  63
ATOM     63  O   UNL     1       0.403   9.336  -6.880  1.00  0.00    -0.341 OA
BRANCH  63  64
ATOM     64  C   UNL     1       0.731   8.276  -7.792  1.00  0.00    +0.186 C 
ATOM     65  C   UNL     1       1.393   7.151  -6.966  1.00  0.00    +0.177 C 
ATOM     66  C   UNL     1      -0.478   7.700  -8.562  1.00  0.00    +0.202 C 
ATOM     67  C   UNL     1       0.343   6.449  -6.079  1.00  0.00    +0.178 C 
ATOM     68  C   UNL     1      -1.436   6.961  -7.597  1.00  0.00    +0.279 C 
ATOM     69  O   UNL     1      -0.741   5.948  -6.875  1.00  0.00    -0.342 OA
BRANCH  65  70
ATOM     70  O   UNL     1       2.045   6.208  -7.832  1.00  0.00    -0.387 OA
ATOM     71  H   UNL     1       2.522   6.733  -8.514  1.00  0.00    +0.211 HD
ENDBRANCH  65  70
BRANCH  66  72
ATOM     72  O   UNL     1       0.026   6.797  -9.568  1.00  0.00    -0.385 OA
ATOM     73  H   UNL     1       0.843   7.190  -9.930  1.00  0.00    +0.211 HD
ENDBRANCH  66  72
BRANCH  67  74
ATOM     74  C   UNL     1       0.939   5.278  -5.276  1.00  0.00    +0.191 C 
BRANCH  74  75
ATOM     75  O   UNL     1       2.363   5.310  -5.186  1.00  0.00    -0.394 OA
ATOM     76  H   UNL     1       2.588   5.993  -4.519  1.00  0.00    +0.210 HD
ENDBRANCH  74  75
ENDBRANCH  67  74
BRANCH  68  77
ATOM     77  O   UNL     1      -2.146   7.820  -6.721  1.00  0.00    -0.366 OA
ATOM     78  H   UNL     1      -3.064   7.498  -6.648  1.00  0.00    +0.213 HD
ENDBRANCH  68  77
ENDBRANCH  63  64
ENDBRANCH  60  63
ENDBRANCH  52  53
ENDBRANCH   5  52
TORSDOF 27
ENDMDL
MODEL 2
REMARK VINA RESULT:    -8.005     33.274     38.822
REMARK INTER + INTRA:         -20.844
REMARK INTER:                 -17.498
REMARK INTRA:                  -3.345
REMARK UNBOUND:                -3.478
REMARK SMILES OC[C@@H]1O[C@H](O[C@H]2[C@@H]3OC[C@H]2O[C@@H](O[C@@H]2[C@H](O)[C@@H](O[C@@H]4[C@@H]5OC[C@H]4O[C@H](O[C@@H]4[C@@H](O)[C@H](O)O[C@@H](CO)[C@H]4O)[C@@H]5O)O[C@H](CO)[C@H]2O)[C@H]3O)[C@@H](O)[C@H](O[C@@H]2O[C@@H]3CO[C@H]([C@H]2O)[C@@H]3O)[C@H]1O
REMARK SMILES IDX 15 1 45 2 42 3 41 4 18 5 16 6 14 7 13 8 7 9 11 10 8 11 10 12
REMARK SMILES IDX 12 13 9 14 47 15 6 16 5 17 51 18 63 19 49 20 3 21 4 22 52 23
REMARK SMILES IDX 53 24 56 25 55 26 57 27 61 28 54 29 58 30 59 31 62 32 60 34
REMARK SMILES IDX 64 36 50 38 2 40 1 41 48 43 46 45 17 47 43 49 44 50 19 52
REMARK SMILES IDX 20 53 24 54 21 55 23 56 25 57 22 58 39 59 26 60 40 61 27 63
REMARK SMILES IDX 28 64 37 65 29 66 34 67 31 68 33 69 38 70 30 72 35 74 36 75
REMARK SMILES IDX 32 77
REMARK H PARENT 62 33 60 35 64 37 50 39 1 42 48 44 46 46 17 48 44 51 40 62
REMARK H PARENT 38 71 30 73 36 76 32 78
ROOT
ATOM      1  C   UNL     1      -2.895  -2.029  23.505  1.00  0.00    +0.186 C 
ATOM      2  C   UNL     1      -3.107  -0.632  24.123  1.00  0.00    +0.177 C 
ATOM      3  C   UNL     1      -4.059   0.245  23.279  1.00  0.00    +0.178 C 
ATOM      4  O   UNL     1      -4.137  -0.209  21.928  1.00  0.00    -0.341 OA
ATOM      5  C   UNL     1      -4.720  -1.510  21.819  1.00  0.00    +0.282 C 
ATOM      6  C   UNL     1      -4.231  -2.499  22.913  1.00  0.00    +0.202 C 
ENDROOT
BRANCH   1   7
ATOM      7  O   UNL     1      -1.918  -2.115  22.440  1.00  0.00    -0.341 OA
BRANCH   7   8
ATOM      8  C   UNL     1      -0.961  -3.169  22.608  1.00  0.00    +0.282 C 
ATOM      9  C   UNL     1       1.941  -2.760  22.526  1.00  0.00    +0.184 C 
ATOM     10  C   UNL     1       1.003  -2.021  23.471  1.00  0.00    +0.179 C 
ATOM     11  C   UNL     1       1.117  -2.555  21.257  1.00  0.00    +0.184 C 
ATOM     12  C   UNL     1       0.699  -0.759  22.661  1.00  0.00    +0.195 C 
ATOM     13  O   UNL     1      -0.141  -2.860  23.746  1.00  0.00    -0.341 OA
ATOM     14  O   UNL     1       0.723  -1.161  21.272  1.00  0.00    -0.370 OA
ATOM     15  C   UNL     1      -0.152  -3.419  21.305  1.00  0.00    +0.202 C 
BRANCH   9  16
ATOM     16  O   UNL     1       2.117  -4.141  22.811  1.00  0.00    -0.341 OA
BRANCH  16  17
ATOM     17  C   UNL     1       3.399  -4.679  22.432  1.00  0.00    +0.282 C 
ATOM     18  C   UNL     1       5.828  -3.868  22.186  1.00  0.00    +0.186 C 
ATOM     19  C   UNL     1       5.774  -4.759  20.937  1.00  0.00    +0.177 C 
ATOM     20  C   UNL     1       4.436  -3.589  22.775  1.00  0.00    +0.202 C 
ATOM     21  C   UNL     1       4.430  -4.681  20.212  1.00  0.00    +0.178 C 
ATOM     22  O   UNL     1       3.340  -5.052  21.061  1.00  0.00    -0.341 OA
BRANCH  18  23
ATOM     23  O   UNL     1       6.458  -2.626  21.799  1.00  0.00    -0.341 OA
BRANCH  23  24
ATOM     24  C   UNL     1       7.731  -2.402  22.420  1.00  0.00    +0.282 C 
ATOM     25  C   UNL     1       6.121  -0.351  23.798  1.00  0.00    +0.195 C 
ATOM     26  C   UNL     1       7.303  -1.084  24.431  1.00  0.00    +0.178 C 
ATOM     27  O   UNL     1       6.655   0.347  22.648  1.00  0.00    -0.370 OA
ATOM     28  C   UNL     1       8.433  -0.125  24.109  1.00  0.00    +0.177 C 
ATOM     29  O   UNL     1       7.575  -2.373  23.850  1.00  0.00    -0.341 OA
ATOM     30  C   UNL     1       8.081   0.114  22.644  1.00  0.00    +0.183 C 
ATOM     31  C   UNL     1       8.402  -1.137  21.813  1.00  0.00    +0.202 C 
BRANCH  28  32
ATOM     32  O   UNL     1       9.727  -0.678  24.307  1.00  0.00    -0.387 OA
ATOM     33  H   UNL     1      10.377   0.025  24.113  1.00  0.00    +0.211 HD
ENDBRANCH  28  32
BRANCH  31  34
ATOM     34  O   UNL     1       9.827  -1.315  21.728  1.00  0.00    -0.385 OA
ATOM     35  H   UNL     1      10.190  -1.081  22.611  1.00  0.00    +0.211 HD
ENDBRANCH  31  34
ENDBRANCH  23  24
ENDBRANCH  18  23
BRANCH  19  36
ATOM     36  O   UNL     1       5.985  -6.117  21.366  1.00  0.00    -0.387 OA
ATOM     37  H   UNL     1       5.358  -6.685  20.883  1.00  0.00    +0.211 HD
ENDBRANCH  19  36
BRANCH  20  38
ATOM     38  O   UNL     1       4.540  -3.429  24.204  1.00  0.00    -0.385 OA
ATOM     39  H   UNL     1       5.224  -2.743  24.351  1.00  0.00    +0.211 HD
ENDBRANCH  20  38
BRANCH  21  40
ATOM     40  C   UNL     1       4.131  -3.337  19.535  1.00  0.00    +0.191 C 
BRANCH  40  41
ATOM     41  O   UNL     1       3.583  -3.575  18.230  1.00  0.00    -0.394 OA
ATOM     42  H   UNL     1       4.328  -3.416  17.607  1.00  0.00    +0.210 HD
ENDBRANCH  40  41
ENDBRANCH  21  40
ENDBRANCH  16  17
ENDBRANCH   9  16
BRANCH  15  43
ATOM     43  O   UNL     1      -0.957  -3.185  20.142  1.00  0.00    -0.385 OA
ATOM     44  H   UNL     1      -0.334  -3.253  19.391  1.00  0.00    +0.211 HD
ENDBRANCH  15  43
ENDBRANCH   7   8
ENDBRANCH   1   7
BRANCH   2  45
ATOM     45  O   UNL     1      -3.660  -0.778  25.441  1.00  0.00    -0.387 OA
ATOM     46  H   UNL     1      -3.937  -1.715  25.514  1.00  0.00    +0.211 HD
ENDBRANCH   2  45
BRANCH   6  47
ATOM     47  O   UNL     1      -4.081  -3.821  22.361  1.00  0.00    -0.385 OA
ATOM     48  H   UNL     1      -4.150  -3.711  21.393  1.00  0.00    +0.211 HD
ENDBRANCH   6  47
BRANCH   3  49
ATOM     49  C   UNL     1      -3.592   1.708  23.274  1.00  0.00    +0.191 C 
BRANCH  49  50
ATOM     50  O   UNL     1      -4.391   2.506  22.405  1.00  0.00    -0.394 OA
ATOM     51  H   UNL     1      -4.057   3.428  22.489  1.00  0.00    +0.210 HD
ENDBRANCH  49  50
ENDBRANCH   3  49
BRANCH   5  52
ATOM     52  O   UNL     1      -6.149  -1.435  21.880  1.00  0.00    -0.341 OA
BRANCH  52  53
ATOM     53  C   UNL     1      -6.793  -1.775  20.649  1.00  0.00    +0.184 C 
ATOM     54  C   UNL     1      -6.944  -3.286  20.579  1.00  0.00    +0.179 C 
ATOM     55  C   UNL     1      -8.288  -1.435  20.618  1.00  0.00    +0.184 C 
ATOM     56  C   UNL     1      -8.041  -3.522  21.620  1.00  0.00    +0.195 C 
ATOM     57  O   UNL     1      -7.340  -3.675  19.244  1.00  0.00    -0.341 OA
ATOM     58  O   UNL     1      -8.931  -2.382  21.513  1.00  0.00    -0.370 OA
ATOM     59  C   UNL     1      -8.823  -1.688  19.203  1.00  0.00    +0.202 C 
ATOM     60  C   UNL     1      -8.623  -3.183  18.840  1.00  0.00    +0.282 C 
BRANCH  59  61
ATOM     61  O   UNL     1      -8.146  -0.833  18.268  1.00  0.00    -0.385 OA
ATOM     62  H   UNL     1      -8.522  -1.053  17.392  1.00  0.00    +0.211 HD
ENDBRANCH  59  61
BRANCH  60  63
ATOM     63  O   UNL     1      -8.707  -3.297  17.414  1.00  0.00    -0.341 OA
BRANCH  63  64
ATOM     64  C   UNL     1      -9.299  -4.522  16.953  1.00  0.00    +0.186 C 
ATOM     65  C   UNL     1     -10.815  -4.270  16.805  1.00  0.00    +0.177 C 
ATOM     66  C   UNL     1      -8.734  -5.039  15.611  1.00  0.00    +0.202 C 
ATOM     67  C   UNL     1     -11.090  -3.350  15.598  1.00  0.00    +0.178 C 
ATOM     68  C   UNL     1      -9.118  -4.084  14.456  1.00  0.00    +0.279 C 
ATOM     69  O   UNL     1     -10.531  -3.905  14.398  1.00  0.00    -0.342 OA
BRANCH  65  70
ATOM     70  O   UNL     1     -11.522  -5.514  16.673  1.00  0.00    -0.387 OA
ATOM     71  H   UNL     1     -11.379  -6.012  17.510  1.00  0.00    +0.211 HD
ENDBRANCH  65  70
BRANCH  66  72
ATOM     72  O   UNL     1      -9.273  -6.357  15.381  1.00  0.00    -0.385 OA
ATOM     73  H   UNL     1      -9.980  -6.271  14.713  1.00  0.00    +0.211 HD
ENDBRANCH  66  72
BRANCH  67  74
ATOM     74  C   UNL     1     -12.594  -3.112  15.368  1.00  0.00    +0.191 C 
BRANCH  74  75
ATOM     75  O   UNL     1     -13.251  -4.192  14.706  1.00  0.00    -0.394 OA
ATOM     76  H   UNL     1     -12.736  -4.380  13.893  1.00  0.00    +0.210 HD
ENDBRANCH  74  75
ENDBRANCH  67  74
BRANCH  68  77
ATOM     77  O   UNL     1      -8.444  -2.838  14.492  1.00  0.00    -0.366 OA
ATOM     78  H   UNL     1      -7.976  -2.763  15.344  1.00  0.00    +0.213 HD
ENDBRANCH  68  77
ENDBRANCH  63  64
ENDBRANCH  60  63
ENDBRANCH  52  53
ENDBRANCH   5  52
TORSDOF 27
ENDMDL
MODEL 3
REMARK VINA RESULT:    -7.914     37.480     39.865
REMARK INTER + INTRA:         -20.646
REMARK INTER:                 -16.872
REMARK INTRA:                  -3.774
REMARK UNBOUND:                -3.478
REMARK SMILES OC[C@@H]1O[C@H](O[C@H]2[C@@H]3OC[C@H]2O[C@@H](O[C@@H]2[C@H](O)[C@@H](O[C@@H]4[C@@H]5OC[C@H]4O[C@H](O[C@@H]4[C@@H](O)[C@H](O)O[C@@H](CO)[C@H]4O)[C@@H]5O)O[C@H](CO)[C@H]2O)[C@H]3O)[C@@H](O)[C@H](O[C@@H]2O[C@@H]3CO[C@H]([C@H]2O)[C@@H]3O)[C@H]1O
REMARK SMILES IDX 15 1 45 2 42 3 41 4 18 5 16 6 14 7 13 8 7 9 11 10 8 11 10 12
REMARK SMILES IDX 12 13 9 14 47 15 6 16 5 17 51 18 63 19 49 20 3 21 4 22 52 23
REMARK SMILES IDX 53 24 56 25 55 26 57 27 61 28 54 29 58 30 59 31 62 32 60 34
REMARK SMILES IDX 64 36 50 38 2 40 1 41 48 43 46 45 17 47 43 49 44 50 19 52
REMARK SMILES IDX 20 53 24 54 21 55 23 56 25 57 22 58 39 59 26 60 40 61 27 63
REMARK SMILES IDX 28 64 37 65 29 66 34 67 31 68 33 69 38 70 30 72 35 74 36 75
REMARK SMILES IDX 32 77
REMARK H PARENT 62 33 60 35 64 37 50 39 1 42 48 44 46 46 17 48 44 51 40 62
REMARK H PARENT 38 71 30 73 36 76 32 78
ROOT
ATOM      1  C   UNL     1       4.684  -3.052  21.159  1.00  0.00    +0.186 C 
ATOM      2  C   UNL     1       4.832  -4.586  21.081  1.00  0.00    +0.177 C 
ATOM      3  C   UNL     1       3.866  -5.319  22.039  1.00  0.00    +0.178 C 
ATOM      4  O   UNL     1       3.425  -4.466  23.097  1.00  0.00    -0.341 OA
ATOM      5  C   UNL     1       2.638  -3.370  22.626  1.00  0.00    +0.282 C 
ATOM      6  C   UNL     1       3.195  -2.722  21.328  1.00  0.00    +0.202 C 
ENDROOT
BRANCH   1   7
ATOM      7  O   UNL     1       5.379  -2.398  22.248  1.00  0.00    -0.341 OA
BRANCH   7   8
ATOM      8  C   UNL     1       6.201  -1.296  21.840  1.00  0.00    +0.282 C 
ATOM      9  C   UNL     1       8.604  -0.437  23.282  1.00  0.00    +0.184 C 
ATOM     10  C   UNL     1       8.387  -1.848  22.754  1.00  0.00    +0.179 C 
ATOM     11  C   UNL     1       7.235  -0.278  23.940  1.00  0.00    +0.184 C 
ATOM     12  C   UNL     1       7.774  -2.532  23.977  1.00  0.00    +0.195 C 
ATOM     13  O   UNL     1       7.528  -1.787  21.593  1.00  0.00    -0.341 OA
ATOM     14  O   UNL     1       7.006  -1.514  24.661  1.00  0.00    -0.370 OA
ATOM     15  C   UNL     1       6.146  -0.132  22.868  1.00  0.00    +0.202 C 
BRANCH   9  16
ATOM     16  O   UNL     1       8.815   0.554  22.285  1.00  0.00    -0.341 OA
BRANCH  16  17
ATOM     17  C   UNL     1      10.014   1.335  22.451  1.00  0.00    +0.282 C 
ATOM     18  C   UNL     1      12.438   1.344  21.589  1.00  0.00    +0.186 C 
ATOM     19  C   UNL     1      12.731   1.715  23.051  1.00  0.00    +0.177 C 
ATOM     20  C   UNL     1      11.007   0.823  21.386  1.00  0.00    +0.202 C 
ATOM     21  C   UNL     1      11.838   0.966  24.041  1.00  0.00    +0.178 C 
ATOM     22  O   UNL     1      10.449   1.206  23.799  1.00  0.00    -0.341 OA
BRANCH  18  23
ATOM     23  O   UNL     1      13.393   0.328  21.207  1.00  0.00    -0.341 OA
BRANCH  23  24
ATOM     24  C   UNL     1      12.819  -0.758  20.467  1.00  0.00    +0.282 C 
ATOM     25  C   UNL     1      15.601  -1.709  20.696  1.00  0.00    +0.195 C 
ATOM     26  C   UNL     1      14.381  -2.627  20.647  1.00  0.00    +0.178 C 
ATOM     27  O   UNL     1      15.592  -0.969  19.452  1.00  0.00    -0.370 OA
ATOM     28  C   UNL     1      14.300  -2.908  19.159  1.00  0.00    +0.177 C 
ATOM     29  O   UNL     1      13.160  -2.008  21.094  1.00  0.00    -0.341 OA
ATOM     30  C   UNL     1      14.485  -1.474  18.674  1.00  0.00    +0.183 C 
ATOM     31  C   UNL     1      13.223  -0.650  18.969  1.00  0.00    +0.202 C 
BRANCH  28  32
ATOM     32  O   UNL     1      13.074  -3.500  18.753  1.00  0.00    -0.387 OA
ATOM     33  H   UNL     1      13.024  -4.382  19.168  1.00  0.00    +0.211 HD
ENDBRANCH  28  32
BRANCH  31  34
ATOM     34  O   UNL     1      12.144  -1.090  18.124  1.00  0.00    -0.385 OA
ATOM     35  H   UNL     1      11.829  -0.296  17.639  1.00  0.00    +0.211 HD
ENDBRANCH  31  34
ENDBRANCH  23  24
ENDBRANCH  18  23
BRANCH  19  36
ATOM     36  O   UNL     1      12.490   3.127  23.194  1.00  0.00    -0.387 OA
ATOM     37  H   UNL     1      12.159   3.285  24.097  1.00  0.00    +0.211 HD
ENDBRANCH  19  36
BRANCH  20  38
ATOM     38  O   UNL     1      10.549   1.176  20.065  1.00  0.00    -0.385 OA
ATOM     39  H   UNL     1      10.864   2.089  19.903  1.00  0.00    +0.211 HD
ENDBRANCH  20  38
BRANCH  21  40
ATOM     40  C   UNL     1      12.098  -0.543  24.142  1.00  0.00    +0.191 C 
BRANCH  40  41
ATOM     41  O   UNL     1      13.497  -0.797  23.946  1.00  0.00    -0.394 OA
ATOM     42  H   UNL     1      13.534  -1.526  23.286  1.00  0.00    +0.210 HD
ENDBRANCH  40  41
ENDBRANCH  21  40
ENDBRANCH  16  17
ENDBRANCH   9  16
BRANCH  15  43
ATOM     43  O   UNL     1       4.853  -0.042  23.481  1.00  0.00    -0.385 OA
ATOM     44  H   UNL     1       4.376   0.633  22.957  1.00  0.00    +0.211 HD
ENDBRANCH  15  43
ENDBRANCH   7   8
ENDBRANCH   1   7
BRANCH   2  45
ATOM     45  O   UNL     1       4.565  -5.018  19.737  1.00  0.00    -0.387 OA
ATOM     46  H   UNL     1       4.539  -4.203  19.193  1.00  0.00    +0.211 HD
ENDBRANCH   2  45
BRANCH   6  47
ATOM     47  O   UNL     1       3.014  -1.294  21.365  1.00  0.00    -0.385 OA
ATOM     48  H   UNL     1       2.285  -1.137  21.996  1.00  0.00    +0.211 HD
ENDBRANCH   6  47
BRANCH   3  49
ATOM     49  C   UNL     1       4.541  -6.551  22.657  1.00  0.00    +0.191 C 
BRANCH  49  50
ATOM     50  O   UNL     1       5.640  -6.995  21.866  1.00  0.00    -0.394 OA
ATOM     51  H   UNL     1       5.254  -7.471  21.097  1.00  0.00    +0.210 HD
ENDBRANCH  49  50
ENDBRANCH   3  49
BRANCH   5  52
ATOM     52  O   UNL     1       1.286  -3.778  22.386  1.00  0.00    -0.341 OA
BRANCH  52  53
ATOM     53  C   UNL     1       0.313  -2.845  22.862  1.00  0.00    +0.184 C 
ATOM     54  C   UNL     1      -0.279  -2.108  21.672  1.00  0.00    +0.179 C 
ATOM     55  C   UNL     1      -0.988  -3.498  23.345  1.00  0.00    +0.184 C 
ATOM     56  C   UNL     1      -1.136  -3.208  21.040  1.00  0.00    +0.195 C 
ATOM     57  O   UNL     1      -1.058  -0.981  22.134  1.00  0.00    -0.341 OA
ATOM     58  O   UNL     1      -1.659  -3.980  22.150  1.00  0.00    -0.370 OA
ATOM     59  C   UNL     1      -1.875  -2.421  23.980  1.00  0.00    +0.202 C 
ATOM     60  C   UNL     1      -2.202  -1.336  22.921  1.00  0.00    +0.282 C 
BRANCH  59  61
ATOM     61  O   UNL     1      -1.207  -1.850  25.118  1.00  0.00    -0.385 OA
ATOM     62  H   UNL     1      -0.465  -2.455  25.317  1.00  0.00    +0.211 HD
ENDBRANCH  59  61
BRANCH  60  63
ATOM     63  O   UNL     1      -2.632  -0.162  23.623  1.00  0.00    -0.341 OA
BRANCH  63  64
ATOM     64  C   UNL     1      -3.339   0.786  22.808  1.00  0.00    +0.186 C 
ATOM     65  C   UNL     1      -4.505   0.031  22.134  1.00  0.00    +0.177 C 
ATOM     66  C   UNL     1      -3.898   2.002  23.583  1.00  0.00    +0.202 C 
ATOM     67  C   UNL     1      -5.591  -0.317  23.175  1.00  0.00    +0.178 C 
ATOM     68  C   UNL     1      -5.023   1.560  24.550  1.00  0.00    +0.279 C 
ATOM     69  O   UNL     1      -6.050   0.867  23.845  1.00  0.00    -0.342 OA
BRANCH  65  70
ATOM     70  O   UNL     1      -5.055   0.810  21.060  1.00  0.00    -0.387 OA
ATOM     71  H   UNL     1      -6.020   0.896  21.237  1.00  0.00    +0.211 HD
ENDBRANCH  65  70
BRANCH  66  72
ATOM     72  O   UNL     1      -4.400   2.949  22.618  1.00  0.00    -0.385 OA
ATOM     73  H   UNL     1      -4.042   3.826  22.856  1.00  0.00    +0.211 HD
ENDBRANCH  66  72
BRANCH  67  74
ATOM     74  C   UNL     1      -6.806  -1.021  22.544  1.00  0.00    +0.191 C 
BRANCH  74  75
ATOM     75  O   UNL     1      -7.662  -0.144  21.813  1.00  0.00    -0.394 OA
ATOM     76  H   UNL     1      -8.448   0.019  22.377  1.00  0.00    +0.210 HD
ENDBRANCH  74  75
ENDBRANCH  67  74
BRANCH  68  77
ATOM     77  O   UNL     1      -4.565   0.806  25.659  1.00  0.00    -0.366 OA
ATOM     78  H   UNL     1      -4.049   0.048  25.327  1.00  0.00    +0.213 HD
ENDBRANCH  68  77
ENDBRANCH  63  64
ENDBRANCH  60  63
ENDBRANCH  52  53
ENDBRANCH   5  52
TORSDOF 27
ENDMDL
MODEL 4
REMARK VINA RESULT:    -7.884      2.515     12.819
REMARK INTER + INTRA:         -20.580
REMARK INTER:                 -16.749
REMARK INTRA:                  -3.832
REMARK UNBOUND:                -3.478
REMARK SMILES OC[C@@H]1O[C@H](O[C@H]2[C@@H]3OC[C@H]2O[C@@H](O[C@@H]2[C@H](O)[C@@H](O[C@@H]4[C@@H]5OC[C@H]4O[C@H](O[C@@H]4[C@@H](O)[C@H](O)O[C@@H](CO)[C@H]4O)[C@@H]5O)O[C@H](CO)[C@H]2O)[C@H]3O)[C@@H](O)[C@H](O[C@@H]2O[C@@H]3CO[C@H]([C@H]2O)[C@@H]3O)[C@H]1O
REMARK SMILES IDX 15 1 45 2 42 3 41 4 18 5 16 6 14 7 13 8 7 9 11 10 8 11 10 12
REMARK SMILES IDX 12 13 9 14 47 15 6 16 5 17 51 18 63 19 49 20 3 21 4 22 52 23
REMARK SMILES IDX 53 24 56 25 55 26 57 27 61 28 54 29 58 30 59 31 62 32 60 34
REMARK SMILES IDX 64 36 50 38 2 40 1 41 48 43 46 45 17 47 43 49 44 50 19 52
REMARK SMILES IDX 20 53 24 54 21 55 23 56 25 57 22 58 39 59 26 60 40 61 27 63
REMARK SMILES IDX 28 64 37 65 29 66 34 67 31 68 33 69 38 70 30 72 35 74 36 75
REMARK SMILES IDX 32 77
REMARK H PARENT 62 33 60 35 64 37 50 39 1 42 48 44 46 46 17 48 44 51 40 62
REMARK H PARENT 38 71 30 73 36 76 32 78
ROOT
ATOM      1  C   UNL     1      -5.192   8.938 -16.932  1.00  0.00    +0.186 C 
ATOM      2  C   UNL     1      -6.710   8.676 -16.835  1.00  0.00    +0.177 C 
ATOM      3  C   UNL     1      -7.451   9.024 -18.144  1.00  0.00    +0.178 C 
ATOM      4  O   UNL     1      -6.702   9.936 -18.949  1.00  0.00    -0.341 OA
ATOM      5  C   UNL     1      -5.474   9.374 -19.417  1.00  0.00    +0.282 C 
ATOM      6  C   UNL     1      -4.727   8.539 -18.339  1.00  0.00    +0.202 C 
ENDROOT
BRANCH   1   7
ATOM      7  O   UNL     1      -4.766  10.306 -16.728  1.00  0.00    -0.341 OA
BRANCH   7   8
ATOM      8  C   UNL     1      -4.605  10.669 -15.350  1.00  0.00    +0.282 C 
ATOM      9  C   UNL     1      -3.796  13.341 -14.454  1.00  0.00    +0.184 C 
ATOM     10  C   UNL     1      -5.001  13.069 -15.344  1.00  0.00    +0.179 C 
ATOM     11  C   UNL     1      -2.804  12.474 -15.226  1.00  0.00    +0.184 C 
ATOM     12  C   UNL     1      -4.388  13.238 -16.735  1.00  0.00    +0.195 C 
ATOM     13  O   UNL     1      -5.508  11.747 -15.057  1.00  0.00    -0.341 OA
ATOM     14  O   UNL     1      -3.017  12.792 -16.624  1.00  0.00    -0.370 OA
ATOM     15  C   UNL     1      -3.122  10.987 -15.013  1.00  0.00    +0.202 C 
BRANCH   9  16
ATOM     16  O   UNL     1      -3.929  12.901 -13.109  1.00  0.00    -0.341 OA
BRANCH  16  17
ATOM     17  C   UNL     1      -3.167  13.656 -12.147  1.00  0.00    +0.282 C 
ATOM     18  C   UNL     1      -1.768  13.219 -10.032  1.00  0.00    +0.186 C 
ATOM     19  C   UNL     1      -2.473  14.499  -9.560  1.00  0.00    +0.177 C 
ATOM     20  C   UNL     1      -2.415  12.616 -11.289  1.00  0.00    +0.202 C 
ATOM     21  C   UNL     1      -3.933  14.571 -10.011  1.00  0.00    +0.178 C 
ATOM     22  O   UNL     1      -4.060  14.502 -11.433  1.00  0.00    -0.341 OA
BRANCH  18  23
ATOM     23  O   UNL     1      -1.829  12.271  -8.942  1.00  0.00    -0.341 OA
BRANCH  23  24
ATOM     24  C   UNL     1      -0.592  12.121  -8.234  1.00  0.00    +0.282 C 
ATOM     25  C   UNL     1      -0.685   9.539  -9.654  1.00  0.00    +0.195 C 
ATOM     26  C   UNL     1       0.604  10.279  -9.302  1.00  0.00    +0.178 C 
ATOM     27  O   UNL     1      -1.341   9.261  -8.395  1.00  0.00    -0.370 OA
ATOM     28  C   UNL     1       0.935   9.646  -7.964  1.00  0.00    +0.177 C 
ATOM     29  O   UNL     1       0.441  11.701  -9.143  1.00  0.00    -0.341 OA
ATOM     30  C   UNL     1      -0.459   9.732  -7.352  1.00  0.00    +0.183 C 
ATOM     31  C   UNL     1      -0.795  11.190  -7.005  1.00  0.00    +0.202 C 
BRANCH  28  32
ATOM     32  O   UNL     1       1.931  10.346  -7.230  1.00  0.00    -0.387 OA
ATOM     33  H   UNL     1       1.685  10.298  -6.287  1.00  0.00    +0.211 HD
ENDBRANCH  28  32
BRANCH  31  34
ATOM     34  O   UNL     1       0.018  11.629  -5.902  1.00  0.00    -0.385 OA
ATOM     35  H   UNL     1      -0.225  11.065  -5.134  1.00  0.00    +0.211 HD
ENDBRANCH  31  34
ENDBRANCH  23  24
ENDBRANCH  18  23
BRANCH  19  36
ATOM     36  O   UNL     1      -1.763  15.616 -10.128  1.00  0.00    -0.387 OA
ATOM     37  H   UNL     1      -1.531  15.389 -11.047  1.00  0.00    +0.211 HD
ENDBRANCH  19  36
BRANCH  20  38
ATOM     38  O   UNL     1      -1.408  11.950 -12.077  1.00  0.00    -0.385 OA
ATOM     39  H   UNL     1      -0.907  12.659 -12.533  1.00  0.00    +0.211 HD
ENDBRANCH  20  38
BRANCH  21  40
ATOM     40  C   UNL     1      -4.870  13.550  -9.351  1.00  0.00    +0.191 C 
BRANCH  40  41
ATOM     41  O   UNL     1      -4.490  13.377  -7.978  1.00  0.00    -0.394 OA
ATOM     42  H   UNL     1      -3.667  13.907  -7.872  1.00  0.00    +0.210 HD
ENDBRANCH  40  41
ENDBRANCH  21  40
ENDBRANCH  16  17
ENDBRANCH   9  16
BRANCH  15  43
ATOM     43  O   UNL     1      -2.229  10.171 -15.783  1.00  0.00    -0.385 OA
ATOM     44  H   UNL     1      -1.789   9.596 -15.125  1.00  0.00    +0.211 HD
ENDBRANCH  15  43
ENDBRANCH   7   8
ENDBRANCH   1   7
BRANCH   2  45
ATOM     45  O   UNL     1      -6.930   7.288 -16.534  1.00  0.00    -0.387 OA
ATOM     46  H   UNL     1      -7.020   6.837 -17.399  1.00  0.00    +0.211 HD
ENDBRANCH   2  45
BRANCH   6  47
ATOM     47  O   UNL     1      -3.304   8.733 -18.455  1.00  0.00    -0.385 OA
ATOM     48  H   UNL     1      -2.942   7.869 -18.728  1.00  0.00    +0.211 HD
ENDBRANCH   6  47
BRANCH   3  49
ATOM     49  C   UNL     1      -8.820   9.652 -17.846  1.00  0.00    +0.191 C 
BRANCH  49  50
ATOM     50  O   UNL     1      -9.276   9.311 -16.540  1.00  0.00    -0.394 OA
ATOM     51  H   UNL     1      -8.669   8.611 -16.207  1.00  0.00    +0.210 HD
ENDBRANCH  49  50
ENDBRANCH   3  49
BRANCH   5  52
ATOM     52  O   UNL     1      -5.697   8.542 -20.561  1.00  0.00    -0.341 OA
BRANCH  52  53
ATOM     53  C   UNL     1      -4.748   7.480 -20.692  1.00  0.00    +0.184 C 
ATOM     54  C   UNL     1      -5.405   6.327 -21.432  1.00  0.00    +0.179 C 
ATOM     55  C   UNL     1      -3.644   7.759 -21.718  1.00  0.00    +0.184 C 
ATOM     56  C   UNL     1      -5.484   6.894 -22.851  1.00  0.00    +0.195 C 
ATOM     57  O   UNL     1      -4.570   5.150 -21.341  1.00  0.00    -0.341 OA
ATOM     58  O   UNL     1      -4.284   7.690 -23.021  1.00  0.00    -0.370 OA
ATOM     59  C   UNL     1      -2.606   6.633 -21.645  1.00  0.00    +0.202 C 
ATOM     60  C   UNL     1      -3.291   5.282 -21.975  1.00  0.00    +0.282 C 
BRANCH  59  61
ATOM     61  O   UNL     1      -2.010   6.606 -20.338  1.00  0.00    -0.385 OA
ATOM     62  H   UNL     1      -2.646   7.060 -19.750  1.00  0.00    +0.211 HD
ENDBRANCH  59  61
BRANCH  60  63
ATOM     63  O   UNL     1      -2.447   4.236 -21.479  1.00  0.00    -0.341 OA
BRANCH  63  64
ATOM     64  C   UNL     1      -2.099   3.243 -22.458  1.00  0.00    +0.186 C 
ATOM     65  C   UNL     1      -1.387   3.974 -23.617  1.00  0.00    +0.177 C 
ATOM     66  C   UNL     1      -1.184   2.116 -21.927  1.00  0.00    +0.202 C 
ATOM     67  C   UNL     1       0.015   4.442 -23.175  1.00  0.00    +0.178 C 
ATOM     68  C   UNL     1       0.216   2.673 -21.574  1.00  0.00    +0.279 C 
ATOM     69  O   UNL     1       0.793   3.335 -22.697  1.00  0.00    -0.342 OA
BRANCH  65  70
ATOM     70  O   UNL     1      -1.304   3.124 -24.772  1.00  0.00    -0.387 OA
ATOM     71  H   UNL     1      -2.018   3.409 -25.386  1.00  0.00    +0.211 HD
ENDBRANCH  65  70
BRANCH  66  72
ATOM     72  O   UNL     1      -1.085   1.106 -22.951  1.00  0.00    -0.385 OA
ATOM     73  H   UNL     1      -0.138   0.905 -23.074  1.00  0.00    +0.211 HD
ENDBRANCH  66  72
BRANCH  67  74
ATOM     74  C   UNL     1       0.793   5.128 -24.314  1.00  0.00    +0.191 C 
BRANCH  74  75
ATOM     75  O   UNL     1       1.154   4.244 -25.375  1.00  0.00    -0.394 OA
ATOM     76  H   UNL     1       1.858   4.693 -25.889  1.00  0.00    +0.210 HD
ENDBRANCH  74  75
ENDBRANCH  67  74
BRANCH  68  77
ATOM     77  O   UNL     1       0.233   3.504 -20.426  1.00  0.00    -0.366 OA
ATOM     78  H   UNL     1       0.142   2.941 -19.634  1.00  0.00    +0.213 HD
ENDBRANCH  68  77
ENDBRANCH  63  64
ENDBRANCH  60  63
ENDBRANCH  52  53
ENDBRANCH   5  52
TORSDOF 27
ENDMDL
MODEL 5
REMARK VINA RESULT:    -7.792     11.841     16.187
REMARK INTER + INTRA:         -20.380
REMARK INTER:                 -17.247
REMARK INTRA:                  -3.133
REMARK UNBOUND:                -3.478
REMARK SMILES OC[C@@H]1O[C@H](O[C@H]2[C@@H]3OC[C@H]2O[C@@H](O[C@@H]2[C@H](O)[C@@H](O[C@@H]4[C@@H]5OC[C@H]4O[C@H](O[C@@H]4[C@@H](O)[C@H](O)O[C@@H](CO)[C@H]4O)[C@@H]5O)O[C@H](CO)[C@H]2O)[C@H]3O)[C@@H](O)[C@H](O[C@@H]2O[C@@H]3CO[C@H]([C@H]2O)[C@@H]3O)[C@H]1O
REMARK SMILES IDX 15 1 45 2 42 3 41 4 18 5 16 6 14 7 13 8 7 9 11 10 8 11 10 12
REMARK SMILES IDX 12 13 9 14 47 15 6 16 5 17 51 18 63 19 49 20 3 21 4 22 52 23
REMARK SMILES IDX 53 24 56 25 55 26 57 27 61 28 54 29 58 30 59 31 62 32 60 34
REMARK SMILES IDX 64 36 50 38 2 40 1 41 48 43 46 45 17 47 43 49 44 50 19 52
REMARK SMILES IDX 20 53 24 54 21 55 23 56 25 57 22 58 39 59 26 60 40 61 27 63
REMARK SMILES IDX 28 64 37 65 29 66 34 67 31 68 33 69 38 70 30 72 35 74 36 75
REMARK SMILES IDX 32 77
REMARK H PARENT 62 33 60 35 64 37 50 39 1 42 48 44 46 46 17 48 44 51 40 62
REMARK H PARENT 38 71 30 73 36 76 32 78
ROOT
ATOM      1  C   UNL     1      11.169  12.258 -13.766  1.00  0.00    +0.186 C 
ATOM      2  C   UNL     1      12.194  12.477 -12.634  1.00  0.00    +0.177 C 
ATOM      3  C   UNL     1      11.602  12.178 -11.239  1.00  0.00    +0.178 C 
ATOM      4  O   UNL     1      10.175  12.248 -11.245  1.00  0.00    -0.341 OA
ATOM      5  C   UNL     1       9.580  11.242 -12.068  1.00  0.00    +0.282 C 
ATOM      6  C   UNL     1      10.324  11.027 -13.415  1.00  0.00    +0.202 C 
ENDROOT
BRANCH   1   7
ATOM      7  O   UNL     1      10.241  13.343 -14.004  1.00  0.00    -0.341 OA
BRANCH   7   8
ATOM      8  C   UNL     1      10.866  14.623 -14.168  1.00  0.00    +0.282 C 
ATOM      9  C   UNL     1       9.436  17.173 -13.950  1.00  0.00    +0.184 C 
ATOM     10  C   UNL     1       9.461  16.114 -12.856  1.00  0.00    +0.179 C 
ATOM     11  C   UNL     1       9.117  16.229 -15.107  1.00  0.00    +0.184 C 
ATOM     12  C   UNL     1       8.198  15.317 -13.185  1.00  0.00    +0.195 C 
ATOM     13  O   UNL     1      10.696  15.370 -12.953  1.00  0.00    -0.341 OA
ATOM     14  O   UNL     1       8.057  15.368 -14.624  1.00  0.00    -0.370 OA
ATOM     15  C   UNL     1      10.340  15.358 -15.432  1.00  0.00    +0.202 C 
BRANCH   9  16
ATOM     16  O   UNL     1      10.667  17.851 -14.161  1.00  0.00    -0.341 OA
BRANCH  16  17
ATOM     17  C   UNL     1      10.879  18.999 -13.317  1.00  0.00    +0.282 C 
ATOM     18  C   UNL     1      10.677  21.559 -13.466  1.00  0.00    +0.186 C 
ATOM     19  C   UNL     1      11.983  21.496 -12.661  1.00  0.00    +0.177 C 
ATOM     20  C   UNL     1      10.296  20.204 -14.083  1.00  0.00    +0.202 C 
ATOM     21  C   UNL     1      12.903  20.360 -13.113  1.00  0.00    +0.178 C 
ATOM     22  O   UNL     1      12.267  19.084 -13.016  1.00  0.00    -0.341 OA
BRANCH  18  23
ATOM     23  O   UNL     1      10.866  22.542 -14.509  1.00  0.00    -0.341 OA
BRANCH  23  24
ATOM     24  C   UNL     1       9.927  23.624 -14.464  1.00  0.00    +0.282 C 
ATOM     25  C   UNL     1       9.211  22.436 -17.065  1.00  0.00    +0.195 C 
ATOM     26  C   UNL     1       8.219  23.138 -16.139  1.00  0.00    +0.178 C 
ATOM     27  O   UNL     1      10.209  23.428 -17.405  1.00  0.00    -0.370 OA
ATOM     28  C   UNL     1       8.275  24.551 -16.686  1.00  0.00    +0.177 C 
ATOM     29  O   UNL     1       8.605  23.134 -14.753  1.00  0.00    -0.341 OA
ATOM     30  C   UNL     1       9.792  24.666 -16.787  1.00  0.00    +0.183 C 
ATOM     31  C   UNL     1      10.408  24.782 -15.385  1.00  0.00    +0.202 C 
BRANCH  28  32
ATOM     32  O   UNL     1       7.679  25.519 -15.834  1.00  0.00    -0.387 OA
ATOM     33  H   UNL     1       6.943  25.082 -15.365  1.00  0.00    +0.211 HD
ENDBRANCH  28  32
BRANCH  31  34
ATOM     34  O   UNL     1      10.072  26.056 -14.808  1.00  0.00    -0.385 OA
ATOM     35  H   UNL     1      10.832  26.653 -14.988  1.00  0.00    +0.211 HD
ENDBRANCH  31  34
ENDBRANCH  23  24
ENDBRANCH  18  23
BRANCH  19  36
ATOM     36  O   UNL     1      11.630  21.277 -11.282  1.00  0.00    -0.387 OA
ATOM     37  H   UNL     1      12.356  20.782 -10.861  1.00  0.00    +0.211 HD
ENDBRANCH  19  36
BRANCH  20  38
ATOM     38  O   UNL     1       8.860  20.099 -14.164  1.00  0.00    -0.385 OA
ATOM     39  H   UNL     1       8.624  20.313 -15.090  1.00  0.00    +0.211 HD
ENDBRANCH  20  38
BRANCH  21  40
ATOM     40  C   UNL     1      13.515  20.535 -14.510  1.00  0.00    +0.191 C 
BRANCH  40  41
ATOM     41  O   UNL     1      14.775  19.850 -14.564  1.00  0.00    -0.394 OA
ATOM     42  H   UNL     1      15.423  20.475 -14.166  1.00  0.00    +0.210 HD
ENDBRANCH  40  41
ENDBRANCH  21  40
ENDBRANCH  16  17
ENDBRANCH   9  16
BRANCH  15  43
ATOM     43  O   UNL     1      10.026  14.430 -16.478  1.00  0.00    -0.385 OA
ATOM     44  H   UNL     1      10.430  13.586 -16.191  1.00  0.00    +0.211 HD
ENDBRANCH  15  43
ENDBRANCH   7   8
ENDBRANCH   1   7
BRANCH   2  45
ATOM     45  O   UNL     1      13.326  11.617 -12.850  1.00  0.00    -0.387 OA
ATOM     46  H   UNL     1      13.307  10.961 -12.122  1.00  0.00    +0.211 HD
ENDBRANCH   2  45
BRANCH   6  47
ATOM     47  O   UNL     1       9.379  10.768 -14.472  1.00  0.00    -0.385 OA
ATOM     48  H   UNL     1       9.593  11.406 -15.179  1.00  0.00    +0.211 HD
ENDBRANCH   6  47
BRANCH   3  49
ATOM     49  C   UNL     1      12.132  13.171 -10.196  1.00  0.00    +0.191 C 
BRANCH  49  50
ATOM     50  O   UNL     1      11.214  14.239  -9.980  1.00  0.00    -0.394 OA
ATOM     51  H   UNL     1      11.603  14.801  -9.271  1.00  0.00    +0.210 HD
ENDBRANCH  49  50
ENDBRANCH   3  49
BRANCH   5  52
ATOM     52  O   UNL     1       9.519   9.989 -11.377  1.00  0.00    -0.341 OA
BRANCH  52  53
ATOM     53  C   UNL     1       9.688   8.855 -12.232  1.00  0.00    +0.184 C 
ATOM     54  C   UNL     1      10.543   7.825 -11.513  1.00  0.00    +0.179 C 
ATOM     55  C   UNL     1       8.429   7.991 -12.371  1.00  0.00    +0.184 C 
ATOM     56  C   UNL     1       9.562   7.315 -10.454  1.00  0.00    +0.195 C 
ATOM     57  O   UNL     1      10.953   6.797 -12.443  1.00  0.00    -0.341 OA
ATOM     58  O   UNL     1       8.260   7.323 -11.092  1.00  0.00    -0.370 OA
ATOM     59  C   UNL     1       8.683   6.915 -13.433  1.00  0.00    +0.202 C 
ATOM     60  C   UNL     1       9.875   6.027 -12.988  1.00  0.00    +0.282 C 
BRANCH  59  61
ATOM     61  O   UNL     1       8.946   7.537 -14.702  1.00  0.00    -0.385 OA
ATOM     62  H   UNL     1       8.074   7.631 -15.134  1.00  0.00    +0.211 HD
ENDBRANCH  59  61
BRANCH  60  63
ATOM     63  O   UNL     1      10.365   5.347 -14.150  1.00  0.00    -0.341 OA
BRANCH  63  64
ATOM     64  C   UNL     1      10.560   3.935 -13.970  1.00  0.00    +0.186 C 
ATOM     65  C   UNL     1       9.171   3.310 -13.716  1.00  0.00    +0.177 C 
ATOM     66  C   UNL     1      11.228   3.224 -15.169  1.00  0.00    +0.202 C 
ATOM     67  C   UNL     1       8.334   3.319 -15.012  1.00  0.00    +0.178 C 
ATOM     68  C   UNL     1      10.286   3.229 -16.397  1.00  0.00    +0.279 C 
ATOM     69  O   UNL     1       9.028   2.641 -16.070  1.00  0.00    -0.342 OA
BRANCH  65  70
ATOM     70  O   UNL     1       9.306   1.976 -13.201  1.00  0.00    -0.387 OA
ATOM     71  H   UNL     1       8.889   1.972 -12.310  1.00  0.00    +0.211 HD
ENDBRANCH  65  70
BRANCH  66  72
ATOM     72  O   UNL     1      11.534   1.873 -14.769  1.00  0.00    -0.385 OA
ATOM     73  H   UNL     1      10.871   1.608 -14.103  1.00  0.00    +0.211 HD
ENDBRANCH  66  72
BRANCH  67  74
ATOM     74  C   UNL     1       6.958   2.653 -14.829  1.00  0.00    +0.191 C 
BRANCH  74  75
ATOM     75  O   UNL     1       6.303   2.342 -16.058  1.00  0.00    -0.394 OA
ATOM     76  H   UNL     1       5.364   2.161 -15.839  1.00  0.00    +0.210 HD
ENDBRANCH  74  75
ENDBRANCH  67  74
BRANCH  68  77
ATOM     77  O   UNL     1      10.116   4.505 -16.988  1.00  0.00    -0.366 OA
ATOM     78  H   UNL     1      10.995   4.859 -17.219  1.00  0.00    +0.213 HD
ENDBRANCH  68  77
ENDBRANCH  63  64
ENDBRANCH  60  63
ENDBRANCH  52  53
ENDBRANCH   5  52
TORSDOF 27
ENDMDL
MODEL 6
REMARK VINA RESULT:    -7.771      2.222     12.440
REMARK INTER + INTRA:         -20.335
REMARK INTER:                 -17.545
REMARK INTRA:                  -2.790
REMARK UNBOUND:                -3.478
REMARK SMILES OC[C@@H]1O[C@H](O[C@H]2[C@@H]3OC[C@H]2O[C@@H](O[C@@H]2[C@H](O)[C@@H](O[C@@H]4[C@@H]5OC[C@H]4O[C@H](O[C@@H]4[C@@H](O)[C@H](O)O[C@@H](CO)[C@H]4O)[C@@H]5O)O[C@H](CO)[C@H]2O)[C@H]3O)[C@@H](O)[C@H](O[C@@H]2O[C@@H]3CO[C@H]([C@H]2O)[C@@H]3O)[C@H]1O
REMARK SMILES IDX 15 1 45 2 42 3 41 4 18 5 16 6 14 7 13 8 7 9 11 10 8 11 10 12
REMARK SMILES IDX 12 13 9 14 47 15 6 16 5 17 51 18 63 19 49 20 3 21 4 22 52 23
REMARK SMILES IDX 53 24 56 25 55 26 57 27 61 28 54 29 58 30 59 31 62 32 60 34
REMARK SMILES IDX 64 36 50 38 2 40 1 41 48 43 46 45 17 47 43 49 44 50 19 52
REMARK SMILES IDX 20 53 24 54 21 55 23 56 25 57 22 58 39 59 26 60 40 61 27 63
REMARK SMILES IDX 28 64 37 65 29 66 34 67 31 68 33 69 38 70 30 72 35 74 36 75
REMARK SMILES IDX 32 77
REMARK H PARENT 62 33 60 35 64 37 50 39 1 42 48 44 46 46 17 48 44 51 40 62
REMARK H PARENT 38 71 30 73 36 76 32 78
ROOT
ATOM      1  C   UNL     1      -4.563   8.883 -17.065  1.00  0.00    +0.186 C 
ATOM      2  C   UNL     1      -6.086   8.711 -16.889  1.00  0.00    +0.177 C 
ATOM      3  C   UNL     1      -6.871   9.091 -18.164  1.00  0.00    +0.178 C 
ATOM      4  O   UNL     1      -6.112   9.951 -19.014  1.00  0.00    -0.341 OA
ATOM      5  C   UNL     1      -4.944   9.315 -19.537  1.00  0.00    +0.282 C 
ATOM      6  C   UNL     1      -4.193   8.448 -18.489  1.00  0.00    +0.202 C 
ENDROOT
BRANCH   1   7
ATOM      7  O   UNL     1      -4.049  10.227 -16.897  1.00  0.00    -0.341 OA
BRANCH   7   8
ATOM      8  C   UNL     1      -3.654  10.538 -15.554  1.00  0.00    +0.282 C 
ATOM      9  C   UNL     1      -1.476  12.383 -14.885  1.00  0.00    +0.184 C 
ATOM     10  C   UNL     1      -2.672  12.755 -15.751  1.00  0.00    +0.179 C 
ATOM     11  C   UNL     1      -1.155  11.062 -15.581  1.00  0.00    +0.184 C 
ATOM     12  C   UNL     1      -2.130  12.461 -17.150  1.00  0.00    +0.195 C 
ATOM     13  O   UNL     1      -3.806  11.952 -15.353  1.00  0.00    -0.341 OA
ATOM     14  O   UNL     1      -1.222  11.344 -17.000  1.00  0.00    -0.370 OA
ATOM     15  C   UNL     1      -2.225  10.012 -15.243  1.00  0.00    +0.202 C 
BRANCH   9  16
ATOM     16  O   UNL     1      -1.766  12.184 -13.508  1.00  0.00    -0.341 OA
BRANCH  16  17
ATOM     17  C   UNL     1      -0.626  11.863 -12.689  1.00  0.00    +0.282 C 
ATOM     18  C   UNL     1      -0.074  10.388 -10.654  1.00  0.00    +0.186 C 
ATOM     19  C   UNL     1       0.764  11.613 -10.261  1.00  0.00    +0.177 C 
ATOM     20  C   UNL     1      -1.065  10.687 -11.790  1.00  0.00    +0.202 C 
ATOM     21  C   UNL     1       0.075  12.935 -10.603  1.00  0.00    +0.178 C 
ATOM     22  O   UNL     1      -0.225  13.039 -11.997  1.00  0.00    -0.341 OA
BRANCH  18  23
ATOM     23  O   UNL     1      -0.791   9.964  -9.472  1.00  0.00    -0.341 OA
BRANCH  23  24
ATOM     24  C   UNL     1      -0.659   8.566  -9.184  1.00  0.00    +0.282 C 
ATOM     25  C   UNL     1      -0.722   9.648  -6.443  1.00  0.00    +0.195 C 
ATOM     26  C   UNL     1      -1.266   8.277  -6.837  1.00  0.00    +0.178 C 
ATOM     27  O   UNL     1       0.688   9.627  -6.771  1.00  0.00    -0.370 OA
ATOM     28  C   UNL     1      -0.052   7.406  -6.573  1.00  0.00    +0.177 C 
ATOM     29  O   UNL     1      -1.652   8.172  -8.220  1.00  0.00    -0.341 OA
ATOM     30  C   UNL     1       0.983   8.297  -7.252  1.00  0.00    +0.183 C 
ATOM     31  C   UNL     1       0.807   8.245  -8.777  1.00  0.00    +0.202 C 
BRANCH  28  32
ATOM     32  O   UNL     1      -0.148   6.104  -7.134  1.00  0.00    -0.387 OA
ATOM     33  H   UNL     1      -1.061   5.994  -7.461  1.00  0.00    +0.211 HD
ENDBRANCH  28  32
BRANCH  31  34
ATOM     34  O   UNL     1       1.193   6.949  -9.269  1.00  0.00    -0.385 OA
ATOM     35  H   UNL     1       1.836   7.106  -9.996  1.00  0.00    +0.211 HD
ENDBRANCH  31  34
ENDBRANCH  23  24
ENDBRANCH  18  23
BRANCH  19  36
ATOM     36  O   UNL     1       2.003  11.541 -10.992  1.00  0.00    -0.387 OA
ATOM     37  H   UNL     1       1.788  11.444 -11.938  1.00  0.00    +0.211 HD
ENDBRANCH  19  36
BRANCH  20  38
ATOM     38  O   UNL     1      -1.263   9.499 -12.582  1.00  0.00    -0.385 OA
ATOM     39  H   UNL     1      -0.476   8.936 -12.430  1.00  0.00    +0.211 HD
ENDBRANCH  20  38
BRANCH  21  40
ATOM     40  C   UNL     1      -1.177  13.251  -9.773  1.00  0.00    +0.191 C 
BRANCH  40  41
ATOM     41  O   UNL     1      -1.017  12.718  -8.451  1.00  0.00    -0.394 OA
ATOM     42  H   UNL     1      -1.894  12.334  -8.222  1.00  0.00    +0.210 HD
ENDBRANCH  40  41
ENDBRANCH  21  40
ENDBRANCH  16  17
ENDBRANCH   9  16
BRANCH  15  43
ATOM     43  O   UNL     1      -1.960   8.789 -15.941  1.00  0.00    -0.385 OA
ATOM     44  H   UNL     1      -1.267   9.019 -16.592  1.00  0.00    +0.211 HD
ENDBRANCH  15  43
ENDBRANCH   7   8
ENDBRANCH   1   7
BRANCH   2  45
ATOM     45  O   UNL     1      -6.370   7.340 -16.562  1.00  0.00    -0.387 OA
ATOM     46  H   UNL     1      -7.267   7.339 -16.168  1.00  0.00    +0.211 HD
ENDBRANCH   2  45
BRANCH   6  47
ATOM     47  O   UNL     1      -2.769   8.558 -18.677  1.00  0.00    -0.385 OA
ATOM     48  H   UNL     1      -2.648   8.851 -19.601  1.00  0.00    +0.211 HD
ENDBRANCH   6  47
BRANCH   3  49
ATOM     49  C   UNL     1      -8.185   9.799 -17.804  1.00  0.00    +0.191 C 
BRANCH  49  50
ATOM     50  O   UNL     1      -8.635   9.432 -16.503  1.00  0.00    -0.394 OA
ATOM     51  H   UNL     1      -9.608   9.297 -16.572  1.00  0.00    +0.210 HD
ENDBRANCH  49  50
ENDBRANCH   3  49
BRANCH   5  52
ATOM     52  O   UNL     1      -5.272   8.489 -20.660  1.00  0.00    -0.341 OA
BRANCH  52  53
ATOM     53  C   UNL     1      -4.410   7.358 -20.810  1.00  0.00    +0.184 C 
ATOM     54  C   UNL     1      -5.165   6.263 -21.544  1.00  0.00    +0.179 C 
ATOM     55  C   UNL     1      -3.303   7.557 -21.852  1.00  0.00    +0.184 C 
ATOM     56  C   UNL     1      -5.222   6.843 -22.960  1.00  0.00    +0.195 C 
ATOM     57  O   UNL     1      -4.422   5.025 -21.473  1.00  0.00    -0.341 OA
ATOM     58  O   UNL     1      -3.967   7.545 -23.145  1.00  0.00    -0.370 OA
ATOM     59  C   UNL     1      -2.354   6.354 -21.800  1.00  0.00    +0.202 C 
ATOM     60  C   UNL     1      -3.147   5.061 -22.126  1.00  0.00    +0.282 C 
BRANCH  59  61
ATOM     61  O   UNL     1      -1.742   6.273 -20.503  1.00  0.00    -0.385 OA
ATOM     62  H   UNL     1      -1.926   5.368 -20.181  1.00  0.00    +0.211 HD
ENDBRANCH  59  61
BRANCH  60  63
ATOM     63  O   UNL     1      -2.378   3.950 -21.648  1.00  0.00    -0.341 OA
BRANCH  63  64
ATOM     64  C   UNL     1      -2.018   3.000 -22.663  1.00  0.00    +0.186 C 
ATOM     65  C   UNL     1      -1.352   3.789 -23.812  1.00  0.00    +0.177 C 
ATOM     66  C   UNL     1      -1.058   1.887 -22.185  1.00  0.00    +0.202 C 
ATOM     67  C   UNL     1       0.043   4.288 -23.382  1.00  0.00    +0.178 C 
ATOM     68  C   UNL     1       0.330   2.477 -21.841  1.00  0.00    +0.279 C 
ATOM     69  O   UNL     1       0.864   3.192 -22.953  1.00  0.00    -0.342 OA
BRANCH  65  70
ATOM     70  O   UNL     1      -1.265   2.978 -24.994  1.00  0.00    -0.387 OA
ATOM     71  H   UNL     1      -0.327   2.690 -25.072  1.00  0.00    +0.211 HD
ENDBRANCH  65  70
BRANCH  66  72
ATOM     72  O   UNL     1      -0.948   0.913 -23.243  1.00  0.00    -0.385 OA
ATOM     73  H   UNL     1      -0.646   1.383 -24.044  1.00  0.00    +0.211 HD
ENDBRANCH  66  72
BRANCH  67  74
ATOM     74  C   UNL     1       0.777   5.033 -24.512  1.00  0.00    +0.191 C 
BRANCH  74  75
ATOM     75  O   UNL     1       1.316   4.169 -25.512  1.00  0.00    -0.394 OA
ATOM     76  H   UNL     1       2.146   4.586 -25.827  1.00  0.00    +0.210 HD
ENDBRANCH  74  75
ENDBRANCH  67  74
BRANCH  68  77
ATOM     77  O   UNL     1       0.343   3.272 -20.668  1.00  0.00    -0.366 OA
ATOM     78  H   UNL     1       1.248   3.610 -20.532  1.00  0.00    +0.213 HD
ENDBRANCH  68  77
ENDBRANCH  63  64
ENDBRANCH  60  63
ENDBRANCH  52  53
ENDBRANCH   5  52
TORSDOF 27
ENDMDL
MODEL 7
REMARK VINA RESULT:    -7.616     16.293     23.494
REMARK INTER + INTRA:         -19.998
REMARK INTER:                 -16.257
REMARK INTRA:                  -3.741
REMARK UNBOUND:                -3.478
REMARK SMILES OC[C@@H]1O[C@H](O[C@H]2[C@@H]3OC[C@H]2O[C@@H](O[C@@H]2[C@H](O)[C@@H](O[C@@H]4[C@@H]5OC[C@H]4O[C@H](O[C@@H]4[C@@H](O)[C@H](O)O[C@@H](CO)[C@H]4O)[C@@H]5O)O[C@H](CO)[C@H]2O)[C@H]3O)[C@@H](O)[C@H](O[C@@H]2O[C@@H]3CO[C@H]([C@H]2O)[C@@H]3O)[C@H]1O
REMARK SMILES IDX 15 1 45 2 42 3 41 4 18 5 16 6 14 7 13 8 7 9 11 10 8 11 10 12
REMARK SMILES IDX 12 13 9 14 47 15 6 16 5 17 51 18 63 19 49 20 3 21 4 22 52 23
REMARK SMILES IDX 53 24 56 25 55 26 57 27 61 28 54 29 58 30 59 31 62 32 60 34
REMARK SMILES IDX 64 36 50 38 2 40 1 41 48 43 46 45 17 47 43 49 44 50 19 52
REMARK SMILES IDX 20 53 24 54 21 55 23 56 25 57 22 58 39 59 26 60 40 61 27 63
REMARK SMILES IDX 28 64 37 65 29 66 34 67 31 68 33 69 38 70 30 72 35 74 36 75
REMARK SMILES IDX 32 77
REMARK H PARENT 62 33 60 35 64 37 50 39 1 42 48 44 46 46 17 48 44 51 40 62
REMARK H PARENT 38 71 30 73 36 76 32 78
ROOT
ATOM      1  C   UNL     1      19.451   3.977  -8.928  1.00  0.00    +0.186 C 
ATOM      2  C   UNL     1      20.060   3.809 -10.336  1.00  0.00    +0.177 C 
ATOM      3  C   UNL     1      18.988   3.518 -11.409  1.00  0.00    +0.178 C 
ATOM      4  O   UNL     1      17.791   2.994 -10.831  1.00  0.00    -0.341 OA
ATOM      5  C   UNL     1      17.139   3.934  -9.974  1.00  0.00    +0.282 C 
ATOM      6  C   UNL     1      18.120   4.728  -9.069  1.00  0.00    +0.202 C 
ENDROOT
BRANCH   1   7
ATOM      7  O   UNL     1      19.162   2.755  -8.208  1.00  0.00    -0.341 OA
BRANCH   7   8
ATOM      8  C   UNL     1      19.539   2.787  -6.825  1.00  0.00    +0.282 C 
ATOM      9  C   UNL     1      20.087   0.389  -5.231  1.00  0.00    +0.184 C 
ATOM     10  C   UNL     1      20.801   0.729  -6.532  1.00  0.00    +0.179 C 
ATOM     11  C   UNL     1      18.668   0.651  -5.731  1.00  0.00    +0.184 C 
ATOM     12  C   UNL     1      19.939  -0.020  -7.549  1.00  0.00    +0.195 C 
ATOM     13  O   UNL     1      20.826   2.165  -6.692  1.00  0.00    -0.341 OA
ATOM     14  O   UNL     1      18.590   0.011  -7.028  1.00  0.00    -0.370 OA
ATOM     15  C   UNL     1      18.444   2.159  -5.919  1.00  0.00    +0.202 C 
BRANCH   9  16
ATOM     16  O   UNL     1      20.410   1.228  -4.129  1.00  0.00    -0.341 OA
BRANCH  16  17
ATOM     17  C   UNL     1      19.646   0.977  -2.934  1.00  0.00    +0.282 C 
ATOM     18  C   UNL     1      19.008   2.209  -0.767  1.00  0.00    +0.186 C 
ATOM     19  C   UNL     1      19.261   0.823  -0.157  1.00  0.00    +0.177 C 
ATOM     20  C   UNL     1      19.547   2.332  -2.201  1.00  0.00    +0.202 C 
ATOM     21  C   UNL     1      20.451   0.104  -0.793  1.00  0.00    +0.178 C 
ATOM     22  O   UNL     1      20.285  -0.063  -2.204  1.00  0.00    -0.341 OA
BRANCH  18  23
ATOM     23  O   UNL     1      19.656   3.177   0.090  1.00  0.00    -0.341 OA
BRANCH  23  24
ATOM     24  C   UNL     1      18.750   4.095   0.717  1.00  0.00    +0.282 C 
ATOM     25  C   UNL     1      20.028   5.895  -1.237  1.00  0.00    +0.195 C 
ATOM     26  C   UNL     1      18.583   6.031  -0.760  1.00  0.00    +0.178 C 
ATOM     27  O   UNL     1      20.852   6.032  -0.055  1.00  0.00    -0.370 OA
ATOM     28  C   UNL     1      18.759   6.997   0.396  1.00  0.00    +0.177 C 
ATOM     29  O   UNL     1      18.002   4.803  -0.287  1.00  0.00    -0.341 OA
ATOM     30  C   UNL     1      19.959   6.315   1.045  1.00  0.00    +0.183 C 
ATOM     31  C   UNL     1      19.525   5.004   1.714  1.00  0.00    +0.202 C 
BRANCH  28  32
ATOM     32  O   UNL     1      17.622   7.090   1.244  1.00  0.00    -0.387 OA
ATOM     33  H   UNL     1      16.839   7.190   0.670  1.00  0.00    +0.211 HD
ENDBRANCH  28  32
BRANCH  31  34
ATOM     34  O   UNL     1      18.713   5.289   2.868  1.00  0.00    -0.385 OA
ATOM     35  H   UNL     1      17.779   5.268   2.564  1.00  0.00    +0.211 HD
ENDBRANCH  31  34
ENDBRANCH  23  24
ENDBRANCH  18  23
BRANCH  19  36
ATOM     36  O   UNL     1      18.077   0.032  -0.377  1.00  0.00    -0.387 OA
ATOM     37  H   UNL     1      18.152  -0.777   0.161  1.00  0.00    +0.211 HD
ENDBRANCH  19  36
BRANCH  20  38
ATOM     38  O   UNL     1      18.722   3.247  -2.949  1.00  0.00    -0.385 OA
ATOM     39  H   UNL     1      18.127   3.672  -2.297  1.00  0.00    +0.211 HD
ENDBRANCH  20  38
BRANCH  21  40
ATOM     40  C   UNL     1      21.823   0.726  -0.498  1.00  0.00    +0.191 C 
BRANCH  40  41
ATOM     41  O   UNL     1      21.844   1.204   0.855  1.00  0.00    -0.394 OA
ATOM     42  H   UNL     1      22.796   1.208   1.109  1.00  0.00    +0.210 HD
ENDBRANCH  40  41
ENDBRANCH  21  40
ENDBRANCH  16  17
ENDBRANCH   9  16
BRANCH  15  43
ATOM     43  O   UNL     1      17.133   2.405  -6.444  1.00  0.00    -0.385 OA
ATOM     44  H   UNL     1      16.855   1.550  -6.830  1.00  0.00    +0.211 HD
ENDBRANCH  15  43
ENDBRANCH   7   8
ENDBRANCH   1   7
BRANCH   2  45
ATOM     45  O   UNL     1      20.758   5.014 -10.694  1.00  0.00    -0.387 OA
ATOM     46  H   UNL     1      20.633   5.119 -11.660  1.00  0.00    +0.211 HD
ENDBRANCH   2  45
BRANCH   6  47
ATOM     47  O   UNL     1      17.540   4.939  -7.767  1.00  0.00    -0.385 OA
ATOM     48  H   UNL     1      16.688   5.387  -7.928  1.00  0.00    +0.211 HD
ENDBRANCH   6  47
BRANCH   3  49
ATOM     49  C   UNL     1      19.510   2.510 -12.442  1.00  0.00    +0.191 C 
BRANCH  49  50
ATOM     50  O   UNL     1      20.934   2.468 -12.456  1.00  0.00    -0.394 OA
ATOM     51  H   UNL     1      21.221   2.454 -11.514  1.00  0.00    +0.210 HD
ENDBRANCH  49  50
ENDBRANCH   3  49
BRANCH   5  52
ATOM     52  O   UNL     1      16.366   4.868 -10.737  1.00  0.00    -0.341 OA
BRANCH  52  53
ATOM     53  C   UNL     1      14.961   4.600 -10.717  1.00  0.00    +0.184 C 
ATOM     54  C   UNL     1      14.378   5.145  -9.424  1.00  0.00    +0.179 C 
ATOM     55  C   UNL     1      14.150   5.479 -11.676  1.00  0.00    +0.184 C 
ATOM     56  C   UNL     1      14.438   6.652  -9.686  1.00  0.00    +0.195 C 
ATOM     57  O   UNL     1      13.029   4.656  -9.253  1.00  0.00    -0.341 OA
ATOM     58  O   UNL     1      14.163   6.814 -11.100  1.00  0.00    -0.370 OA
ATOM     59  C   UNL     1      12.698   4.987 -11.688  1.00  0.00    +0.202 C 
ATOM     60  C   UNL     1      12.107   5.097 -10.258  1.00  0.00    +0.282 C 
BRANCH  59  61
ATOM     61  O   UNL     1      12.647   3.633 -12.167  1.00  0.00    -0.385 OA
ATOM     62  H   UNL     1      13.241   3.607 -12.943  1.00  0.00    +0.211 HD
ENDBRANCH  59  61
BRANCH  60  63
ATOM     63  O   UNL     1      10.955   4.247 -10.199  1.00  0.00    -0.341 OA
BRANCH  63  64
ATOM     64  C   UNL     1       9.844   4.807  -9.480  1.00  0.00    +0.186 C 
ATOM     65  C   UNL     1       9.759   6.301  -9.860  1.00  0.00    +0.177 C 
ATOM     66  C   UNL     1       8.487   4.128  -9.771  1.00  0.00    +0.202 C 
ATOM     67  C   UNL     1       9.264   6.457 -11.313  1.00  0.00    +0.178 C 
ATOM     68  C   UNL     1       8.047   4.396 -11.230  1.00  0.00    +0.279 C 
ATOM     69  O   UNL     1       8.003   5.796 -11.494  1.00  0.00    -0.342 OA
BRANCH  65  70
ATOM     70  O   UNL     1       8.901   7.004  -8.948  1.00  0.00    -0.387 OA
ATOM     71  H   UNL     1       8.073   7.211  -9.440  1.00  0.00    +0.211 HD
ENDBRANCH  65  70
BRANCH  66  72
ATOM     72  O   UNL     1       7.518   4.657  -8.843  1.00  0.00    -0.385 OA
ATOM     73  H   UNL     1       6.720   4.097  -8.902  1.00  0.00    +0.211 HD
ENDBRANCH  66  72
BRANCH  67  74
ATOM     74  C   UNL     1       9.105   7.931 -11.727  1.00  0.00    +0.191 C 
BRANCH  74  75
ATOM     75  O   UNL     1       8.011   8.591 -11.090  1.00  0.00    -0.394 OA
ATOM     76  H   UNL     1       7.229   8.462 -11.668  1.00  0.00    +0.210 HD
ENDBRANCH  74  75
ENDBRANCH  67  74
BRANCH  68  77
ATOM     77  O   UNL     1       8.825   3.717 -12.200  1.00  0.00    -0.366 OA
ATOM     78  H   UNL     1       8.232   3.163 -12.742  1.00  0.00    +0.213 HD
ENDBRANCH  68  77
ENDBRANCH  63  64
ENDBRANCH  60  63
ENDBRANCH  52  53
ENDBRANCH   5  52
TORSDOF 27
ENDMDL
MODEL 8
REMARK VINA RESULT:    -7.568     10.810     15.279
REMARK INTER + INTRA:         -19.895
REMARK INTER:                 -16.022
REMARK INTRA:                  -3.873
REMARK UNBOUND:                -3.478
REMARK SMILES OC[C@@H]1O[C@H](O[C@H]2[C@@H]3OC[C@H]2O[C@@H](O[C@@H]2[C@H](O)[C@@H](O[C@@H]4[C@@H]5OC[C@H]4O[C@H](O[C@@H]4[C@@H](O)[C@H](O)O[C@@H](CO)[C@H]4O)[C@@H]5O)O[C@H](CO)[C@H]2O)[C@H]3O)[C@@H](O)[C@H](O[C@@H]2O[C@@H]3CO[C@H]([C@H]2O)[C@@H]3O)[C@H]1O
REMARK SMILES IDX 15 1 45 2 42 3 41 4 18 5 16 6 14 7 13 8 7 9 11 10 8 11 10 12
REMARK SMILES IDX 12 13 9 14 47 15 6 16 5 17 51 18 63 19 49 20 3 21 4 22 52 23
REMARK SMILES IDX 53 24 56 25 55 26 57 27 61 28 54 29 58 30 59 31 62 32 60 34
REMARK SMILES IDX 64 36 50 38 2 40 1 41 48 43 46 45 17 47 43 49 44 50 19 52
REMARK SMILES IDX 20 53 24 54 21 55 23 56 25 57 22 58 39 59 26 60 40 61 27 63
REMARK SMILES IDX 28 64 37 65 29 66 34 67 31 68 33 69 38 70 30 72 35 74 36 75
REMARK SMILES IDX 32 77
REMARK H PARENT 62 33 60 35 64 37 50 39 1 42 48 44 46 46 17 48 44 51 40 62
REMARK H PARENT 38 71 30 73 36 76 32 78
ROOT
ATOM      1  C   UNL     1       6.684  11.529 -15.424  1.00  0.00    +0.186 C 
ATOM      2  C   UNL     1       5.357  11.509 -14.637  1.00  0.00    +0.177 C 
ATOM      3  C   UNL     1       5.281  12.638 -13.586  1.00  0.00    +0.178 C 
ATOM      4  O   UNL     1       6.578  13.120 -13.234  1.00  0.00    -0.341 OA
ATOM      5  C   UNL     1       7.246  13.749 -14.330  1.00  0.00    +0.282 C 
ATOM      6  C   UNL     1       7.069  12.993 -15.676  1.00  0.00    +0.202 C 
ENDROOT
BRANCH   1   7
ATOM      7  O   UNL     1       7.820  10.908 -14.776  1.00  0.00    -0.341 OA
BRANCH   7   8
ATOM      8  C   UNL     1       7.477   9.810 -13.920  1.00  0.00    +0.282 C 
ATOM      9  C   UNL     1       9.406   8.419 -12.205  1.00  0.00    +0.184 C 
ATOM     10  C   UNL     1       9.151   9.920 -12.158  1.00  0.00    +0.179 C 
ATOM     11  C   UNL     1       9.530   8.306 -13.723  1.00  0.00    +0.184 C 
ATOM     12  C   UNL     1      10.222  10.433 -13.120  1.00  0.00    +0.195 C 
ATOM     13  O   UNL     1       7.789  10.177 -12.566  1.00  0.00    -0.341 OA
ATOM     14  O   UNL     1      10.383   9.406 -14.125  1.00  0.00    -0.370 OA
ATOM     15  C   UNL     1       8.155   8.491 -14.382  1.00  0.00    +0.202 C 
BRANCH   9  16
ATOM     16  O   UNL     1       8.345   7.612 -11.712  1.00  0.00    -0.341 OA
BRANCH  16  17
ATOM     17  C   UNL     1       8.762   6.414 -11.029  1.00  0.00    +0.282 C 
ATOM     18  C   UNL     1      10.923   5.406 -10.063  1.00  0.00    +0.186 C 
ATOM     19  C   UNL     1      10.339   4.120 -10.666  1.00  0.00    +0.177 C 
ATOM     20  C   UNL     1      10.212   6.672 -10.567  1.00  0.00    +0.202 C 
ATOM     21  C   UNL     1       9.651   4.356 -12.011  1.00  0.00    +0.178 C 
ATOM     22  O   UNL     1       8.592   5.312 -11.911  1.00  0.00    -0.341 OA
BRANCH  18  23
ATOM     23  O   UNL     1      12.322   5.449 -10.422  1.00  0.00    -0.341 OA
BRANCH  23  24
ATOM     24  C   UNL     1      13.206   5.569  -9.300  1.00  0.00    +0.282 C 
ATOM     25  C   UNL     1      13.552   8.235 -10.509  1.00  0.00    +0.195 C 
ATOM     26  C   UNL     1      13.648   7.953  -9.011  1.00  0.00    +0.178 C 
ATOM     27  O   UNL     1      14.588   7.439 -11.132  1.00  0.00    -0.370 OA
ATOM     28  C   UNL     1      15.139   7.714  -8.865  1.00  0.00    +0.177 C 
ATOM     29  O   UNL     1      12.923   6.785  -8.585  1.00  0.00    -0.341 OA
ATOM     30  C   UNL     1      15.311   6.788 -10.064  1.00  0.00    +0.183 C 
ATOM     31  C   UNL     1      14.682   5.418  -9.769  1.00  0.00    +0.202 C 
BRANCH  28  32
ATOM     32  O   UNL     1      15.507   7.126  -7.625  1.00  0.00    -0.387 OA
ATOM     33  H   UNL     1      15.313   7.778  -6.924  1.00  0.00    +0.211 HD
ENDBRANCH  28  32
BRANCH  31  34
ATOM     34  O   UNL     1      15.458   4.728  -8.773  1.00  0.00    -0.385 OA
ATOM     35  H   UNL     1      16.338   4.557  -9.175  1.00  0.00    +0.211 HD
ENDBRANCH  31  34
ENDBRANCH  23  24
ENDBRANCH  18  23
BRANCH  19  36
ATOM     36  O   UNL     1       9.364   3.611  -9.736  1.00  0.00    -0.387 OA
ATOM     37  H   UNL     1       8.615   4.234  -9.717  1.00  0.00    +0.211 HD
ENDBRANCH  19  36
BRANCH  20  38
ATOM     38  O   UNL     1      10.238   7.680  -9.537  1.00  0.00    -0.385 OA
ATOM     39  H   UNL     1      11.174   7.955  -9.449  1.00  0.00    +0.211 HD
ENDBRANCH  20  38
BRANCH  21  40
ATOM     40  C   UNL     1      10.589   4.734 -13.166  1.00  0.00    +0.191 C 
BRANCH  40  41
ATOM     41  O   UNL     1      11.833   4.036 -13.013  1.00  0.00    -0.394 OA
ATOM     42  H   UNL     1      12.523   4.738 -13.021  1.00  0.00    +0.210 HD
ENDBRANCH  40  41
ENDBRANCH  21  40
ENDBRANCH  16  17
ENDBRANCH   9  16
BRANCH  15  43
ATOM     43  O   UNL     1       8.278   8.444 -15.810  1.00  0.00    -0.385 OA
ATOM     44  H   UNL     1       7.445   8.835 -16.143  1.00  0.00    +0.211 HD
ENDBRANCH  15  43
ENDBRANCH   7   8
ENDBRANCH   1   7
BRANCH   2  45
ATOM     45  O   UNL     1       4.262  11.658 -15.556  1.00  0.00    -0.387 OA
ATOM     46  H   UNL     1       4.171  12.621 -15.712  1.00  0.00    +0.211 HD
ENDBRANCH   2  45
BRANCH   6  47
ATOM     47  O   UNL     1       8.286  13.051 -16.445  1.00  0.00    -0.385 OA
ATOM     48  H   UNL     1       8.041  12.768 -17.347  1.00  0.00    +0.211 HD
ENDBRANCH   6  47
BRANCH   3  49
ATOM     49  C   UNL     1       4.582  12.149 -12.310  1.00  0.00    +0.191 C 
BRANCH  49  50
ATOM     50  O   UNL     1       5.412  11.258 -11.569  1.00  0.00    -0.394 OA
ATOM     51  H   UNL     1       5.532  10.459 -12.131  1.00  0.00    +0.210 HD
ENDBRANCH  49  50
ENDBRANCH   3  49
BRANCH   5  52
ATOM     52  O   UNL     1       6.788  15.096 -14.502  1.00  0.00    -0.341 OA
BRANCH  52  53
ATOM     53  C   UNL     1       7.753  16.081 -14.125  1.00  0.00    +0.184 C 
ATOM     54  C   UNL     1       8.564  16.464 -15.351  1.00  0.00    +0.179 C 
ATOM     55  C   UNL     1       7.152  17.466 -13.856  1.00  0.00    +0.184 C 
ATOM     56  C   UNL     1       7.535  17.274 -16.144  1.00  0.00    +0.195 C 
ATOM     57  O   UNL     1       9.712  17.247 -14.952  1.00  0.00    -0.341 OA
ATOM     58  O   UNL     1       6.751  17.984 -15.153  1.00  0.00    -0.370 OA
ATOM     59  C   UNL     1       8.249  18.382 -13.302  1.00  0.00    +0.202 C 
ATOM     60  C   UNL     1       9.389  18.505 -14.347  1.00  0.00    +0.282 C 
BRANCH  59  61
ATOM     61  O   UNL     1       8.741  17.855 -12.059  1.00  0.00    -0.385 OA
ATOM     62  H   UNL     1       8.685  16.883 -12.146  1.00  0.00    +0.211 HD
ENDBRANCH  59  61
BRANCH  60  63
ATOM     63  O   UNL     1      10.557  18.974 -13.661  1.00  0.00    -0.341 OA
BRANCH  63  64
ATOM     64  C   UNL     1      11.451  19.747 -14.477  1.00  0.00    +0.186 C 
ATOM     65  C   UNL     1      10.590  20.741 -15.286  1.00  0.00    +0.177 C 
ATOM     66  C   UNL     1      12.524  20.528 -13.686  1.00  0.00    +0.202 C 
ATOM     67  C   UNL     1      10.028  21.840 -14.360  1.00  0.00    +0.178 C 
ATOM     68  C   UNL     1      11.869  21.647 -12.841  1.00  0.00    +0.279 C 
ATOM     69  O   UNL     1      11.090  22.510 -13.665  1.00  0.00    -0.342 OA
BRANCH  65  70
ATOM     70  O   UNL     1      11.355  21.315 -16.357  1.00  0.00    -0.387 OA
ATOM     71  H   UNL     1      10.709  21.637 -17.027  1.00  0.00    +0.211 HD
ENDBRANCH  65  70
BRANCH  66  72
ATOM     72  O   UNL     1      13.456  21.087 -14.634  1.00  0.00    -0.385 OA
ATOM     73  H   UNL     1      13.696  20.377 -15.261  1.00  0.00    +0.211 HD
ENDBRANCH  66  72
BRANCH  67  74
ATOM     74  C   UNL     1       9.207  22.893 -15.126  1.00  0.00    +0.191 C 
BRANCH  74  75
ATOM     75  O   UNL     1      10.002  23.912 -15.730  1.00  0.00    -0.394 OA
ATOM     76  H   UNL     1      10.052  24.650 -15.086  1.00  0.00    +0.210 HD
ENDBRANCH  74  75
ENDBRANCH  67  74
BRANCH  68  77
ATOM     77  O   UNL     1      11.114  21.170 -11.741  1.00  0.00    -0.366 OA
ATOM     78  H   UNL     1      11.710  21.071 -10.975  1.00  0.00    +0.213 HD
ENDBRANCH  68  77
ENDBRANCH  63  64
ENDBRANCH  60  63
ENDBRANCH  52  53
ENDBRANCH   5  52
TORSDOF 27
ENDMDL
MODEL 9
REMARK VINA RESULT:    -7.442     33.426     39.339
REMARK INTER + INTRA:         -19.622
REMARK INTER:                 -16.174
REMARK INTRA:                  -3.449
REMARK UNBOUND:                -3.478
REMARK SMILES OC[C@@H]1O[C@H](O[C@H]2[C@@H]3OC[C@H]2O[C@@H](O[C@@H]2[C@H](O)[C@@H](O[C@@H]4[C@@H]5OC[C@H]4O[C@H](O[C@@H]4[C@@H](O)[C@H](O)O[C@@H](CO)[C@H]4O)[C@@H]5O)O[C@H](CO)[C@H]2O)[C@H]3O)[C@@H](O)[C@H](O[C@@H]2O[C@@H]3CO[C@H]([C@H]2O)[C@@H]3O)[C@H]1O
REMARK SMILES IDX 15 1 45 2 42 3 41 4 18 5 16 6 14 7 13 8 7 9 11 10 8 11 10 12
REMARK SMILES IDX 12 13 9 14 47 15 6 16 5 17 51 18 63 19 49 20 3 21 4 22 52 23
REMARK SMILES IDX 53 24 56 25 55 26 57 27 61 28 54 29 58 30 59 31 62 32 60 34
REMARK SMILES IDX 64 36 50 38 2 40 1 41 48 43 46 45 17 47 43 49 44 50 19 52
REMARK SMILES IDX 20 53 24 54 21 55 23 56 25 57 22 58 39 59 26 60 40 61 27 63
REMARK SMILES IDX 28 64 37 65 29 66 34 67 31 68 33 69 38 70 30 72 35 74 36 75
REMARK SMILES IDX 32 77
REMARK H PARENT 62 33 60 35 64 37 50 39 1 42 48 44 46 46 17 48 44 51 40 62
REMARK H PARENT 38 71 30 73 36 76 32 78
ROOT
ATOM      1  C   UNL     1      -1.350  -1.567  24.818  1.00  0.00    +0.186 C 
ATOM      2  C   UNL     1      -0.755  -0.321  25.506  1.00  0.00    +0.177 C 
ATOM      3  C   UNL     1      -1.048   0.978  24.724  1.00  0.00    +0.178 C 
ATOM      4  O   UNL     1      -1.351   0.713  23.354  1.00  0.00    -0.341 OA
ATOM      5  C   UNL     1      -2.558  -0.036  23.193  1.00  0.00    +0.282 C 
ATOM      6  C   UNL     1      -2.714  -1.184  24.230  1.00  0.00    +0.202 C 
ENDROOT
BRANCH   1   7
ATOM      7  O   UNL     1      -0.574  -2.128  23.731  1.00  0.00    -0.341 OA
BRANCH   7   8
ATOM      8  C   UNL     1       0.713  -2.622  24.126  1.00  0.00    +0.282 C 
ATOM      9  C   UNL     1       2.924  -3.079  22.256  1.00  0.00    +0.184 C 
ATOM     10  C   UNL     1       2.207  -1.746  22.417  1.00  0.00    +0.179 C 
ATOM     11  C   UNL     1       1.672  -3.948  22.165  1.00  0.00    +0.184 C 
ATOM     12  C   UNL     1       1.133  -1.853  21.333  1.00  0.00    +0.195 C 
ATOM     13  O   UNL     1       1.703  -1.645  23.768  1.00  0.00    -0.341 OA
ATOM     14  O   UNL     1       0.784  -3.255  21.254  1.00  0.00    -0.370 OA
ATOM     15  C   UNL     1       0.987  -4.034  23.538  1.00  0.00    +0.202 C 
BRANCH   9  16
ATOM     16  O   UNL     1       3.740  -3.462  23.355  1.00  0.00    -0.341 OA
BRANCH  16  17
ATOM     17  C   UNL     1       5.144  -3.582  23.055  1.00  0.00    +0.282 C 
ATOM     18  C   UNL     1       7.158  -2.038  22.633  1.00  0.00    +0.186 C 
ATOM     19  C   UNL     1       7.468  -3.091  21.559  1.00  0.00    +0.177 C 
ATOM     20  C   UNL     1       5.730  -2.160  23.186  1.00  0.00    +0.202 C 
ATOM     21  C   UNL     1       6.212  -3.604  20.854  1.00  0.00    +0.178 C 
ATOM     22  O   UNL     1       5.278  -4.178  21.771  1.00  0.00    -0.341 OA
BRANCH  18  23
ATOM     23  O   UNL     1       7.344  -0.740  22.025  1.00  0.00    -0.341 OA
BRANCH  23  24
ATOM     24  C   UNL     1       7.939   0.230  22.897  1.00  0.00    +0.282 C 
ATOM     25  C   UNL     1      10.140  -0.145  20.972  1.00  0.00    +0.195 C 
ATOM     26  C   UNL     1       9.849   1.167  21.698  1.00  0.00    +0.178 C 
ATOM     27  O   UNL     1      10.418  -1.120  22.005  1.00  0.00    -0.370 OA
ATOM     28  C   UNL     1      10.750   1.022  22.910  1.00  0.00    +0.177 C 
ATOM     29  O   UNL     1       8.481   1.314  22.121  1.00  0.00    -0.341 OA
ATOM     30  C   UNL     1      10.378  -0.414  23.265  1.00  0.00    +0.183 C 
ATOM     31  C   UNL     1       8.958  -0.465  23.845  1.00  0.00    +0.202 C 
BRANCH  28  32
ATOM     32  O   UNL     1      10.476   1.959  23.943  1.00  0.00    -0.387 OA
ATOM     33  H   UNL     1      10.443   2.844  23.532  1.00  0.00    +0.211 HD
ENDBRANCH  28  32
BRANCH  31  34
ATOM     34  O   UNL     1       8.938   0.154  25.144  1.00  0.00    -0.385 OA
ATOM     35  H   UNL     1       9.708  -0.207  25.637  1.00  0.00    +0.211 HD
ENDBRANCH  31  34
ENDBRANCH  23  24
ENDBRANCH  18  23
BRANCH  19  36
ATOM     36  O   UNL     1       8.111  -4.200  22.215  1.00  0.00    -0.387 OA
ATOM     37  H   UNL     1       9.061  -4.165  22.002  1.00  0.00    +0.211 HD
ENDBRANCH  19  36
BRANCH  20  38
ATOM     38  O   UNL     1       5.709  -1.735  24.564  1.00  0.00    -0.385 OA
ATOM     39  H   UNL     1       4.773  -1.781  24.849  1.00  0.00    +0.211 HD
ENDBRANCH  20  38
BRANCH  21  40
ATOM     40  C   UNL     1       5.503  -2.580  19.957  1.00  0.00    +0.191 C 
BRANCH  40  41
ATOM     41  O   UNL     1       4.695  -3.272  18.995  1.00  0.00    -0.394 OA
ATOM     42  H   UNL     1       3.773  -2.977  19.176  1.00  0.00    +0.210 HD
ENDBRANCH  40  41
ENDBRANCH  21  40
ENDBRANCH  16  17
ENDBRANCH   9  16
BRANCH  15  43
ATOM     43  O   UNL     1      -0.221  -4.800  23.444  1.00  0.00    -0.385 OA
ATOM     44  H   UNL     1      -0.191  -5.405  24.212  1.00  0.00    +0.211 HD
ENDBRANCH  15  43
ENDBRANCH   7   8
ENDBRANCH   1   7
BRANCH   2  45
ATOM     45  O   UNL     1      -1.310  -0.202  26.826  1.00  0.00    -0.387 OA
ATOM     46  H   UNL     1      -0.544  -0.148  27.435  1.00  0.00    +0.211 HD
ENDBRANCH   2  45
BRANCH   6  47
ATOM     47  O   UNL     1      -3.319  -2.336  23.611  1.00  0.00    -0.385 OA
ATOM     48  H   UNL     1      -2.611  -2.754  23.084  1.00  0.00    +0.211 HD
ENDBRANCH   6  47
BRANCH   3  49
ATOM     49  C   UNL     1       0.153   1.932  24.780  1.00  0.00    +0.191 C 
BRANCH  49  50
ATOM     50  O   UNL     1       1.387   1.220  24.728  1.00  0.00    -0.394 OA
ATOM     51  H   UNL     1       1.947   1.682  24.064  1.00  0.00    +0.210 HD
ENDBRANCH  49  50
ENDBRANCH   3  49
BRANCH   5  52
ATOM     52  O   UNL     1      -3.704   0.818  23.285  1.00  0.00    -0.341 OA
BRANCH  52  53
ATOM     53  C   UNL     1      -4.627   0.656  22.204  1.00  0.00    +0.184 C 
ATOM     54  C   UNL     1      -5.453  -0.595  22.451  1.00  0.00    +0.179 C 
ATOM     55  C   UNL     1      -5.788   1.657  22.226  1.00  0.00    +0.184 C 
ATOM     56  C   UNL     1      -6.349  -0.133  23.604  1.00  0.00    +0.195 C 
ATOM     57  O   UNL     1      -6.197  -0.931  21.259  1.00  0.00    -0.341 OA
ATOM     58  O   UNL     1      -6.631   1.264  23.343  1.00  0.00    -0.370 OA
ATOM     59  C   UNL     1      -6.606   1.494  20.940  1.00  0.00    +0.202 C 
ATOM     60  C   UNL     1      -7.167   0.049  20.870  1.00  0.00    +0.282 C 
BRANCH  59  61
ATOM     61  O   UNL     1      -5.781   1.785  19.800  1.00  0.00    -0.385 OA
ATOM     62  H   UNL     1      -4.898   1.998  20.162  1.00  0.00    +0.211 HD
ENDBRANCH  59  61
BRANCH  60  63
ATOM     63  O   UNL     1      -7.528  -0.209  19.507  1.00  0.00    -0.341 OA
BRANCH  63  64
ATOM     64  C   UNL     1      -8.877  -0.673  19.331  1.00  0.00    +0.186 C 
ATOM     65  C   UNL     1      -9.136  -0.760  17.812  1.00  0.00    +0.177 C 
ATOM     66  C   UNL     1      -9.169  -2.046  19.979  1.00  0.00    +0.202 C 
ATOM     67  C   UNL     1      -8.348  -1.937  17.200  1.00  0.00    +0.178 C 
ATOM     68  C   UNL     1      -8.384  -3.166  19.255  1.00  0.00    +0.279 C 
ATOM     69  O   UNL     1      -8.679  -3.168  17.860  1.00  0.00    -0.342 OA
BRANCH  65  70
ATOM     70  O   UNL     1     -10.542  -0.892  17.548  1.00  0.00    -0.387 OA
ATOM     71  H   UNL     1     -10.828  -1.742  17.954  1.00  0.00    +0.211 HD
ENDBRANCH  65  70
BRANCH  66  72
ATOM     72  O   UNL     1     -10.589  -2.283  19.893  1.00  0.00    -0.385 OA
ATOM     73  H   UNL     1     -10.716  -3.133  19.430  1.00  0.00    +0.211 HD
ENDBRANCH  66  72
BRANCH  67  74
ATOM     74  C   UNL     1      -8.617  -2.106  15.693  1.00  0.00    +0.191 C 
BRANCH  74  75
ATOM     75  O   UNL     1      -9.113  -0.925  15.063  1.00  0.00    -0.394 OA
ATOM     76  H   UNL     1      -9.171  -1.120  14.104  1.00  0.00    +0.210 HD
ENDBRANCH  74  75
ENDBRANCH  67  74
BRANCH  68  77
ATOM     77  O   UNL     1      -6.986  -3.129  19.482  1.00  0.00    -0.366 OA
ATOM     78  H   UNL     1      -6.567  -3.834  18.953  1.00  0.00    +0.213 HD
ENDBRANCH  68  77
ENDBRANCH  63  64
ENDBRANCH  60  63
ENDBRANCH  52  53
ENDBRANCH   5  52
TORSDOF 27
ENDMDL
