MODEL 1
REMARK VINA RESULT:    -7.078      0.000      0.000
REMARK INTER + INTRA:         -12.074
REMARK INTER:                 -10.388
REMARK INTRA:                  -1.686
REMARK UNBOUND:                -1.686
REMARK SMILES O=S(=O)(O)OC[C@@H]1O[C@H](O[C@H]2[C@@H]3OC[C@H]2O[C@@H](O)[C@H]3O)[C@@H](O)[C@H](O)[C@@H]1O
REMARK SMILES IDX 9 1 21 2 23 3 25 4 7 5 8 6 10 7 11 8 14 9 15 10 13 11 16 12
REMARK SMILES IDX 12 13 17 14 19 15 18 16 20 18 22 20 24 22 6 24 5 25 2 26
REMARK SMILES IDX 1 27 3 28 4 29 26 31
REMARK H PARENT 18 17 20 19 22 21 24 23 4 30 26 32
ROOT
ATOM      1  C   UNL     1      -1.339  11.998  -7.285  1.00  0.00    +0.282 C 
ATOM      2  C   UNL     1      -2.870  11.824  -7.304  1.00  0.00    +0.202 C 
ATOM      3  C   UNL     1      -3.501  13.135  -6.865  1.00  0.00    +0.179 C 
ATOM      4  C   UNL     1      -3.176  14.222  -7.894  1.00  0.00    +0.177 C 
ATOM      5  C   UNL     1      -1.752  14.087  -8.484  1.00  0.00    +0.180 C 
ATOM      6  O   UNL     1      -0.884  13.301  -7.646  1.00  0.00    -0.341 OA
ENDROOT
BRANCH   1   7
ATOM      7  O   UNL     1      -0.772  10.961  -8.090  1.00  0.00    -0.341 OA
BRANCH   7   8
ATOM      8  C   UNL     1       0.087  10.095  -7.356  1.00  0.00    +0.184 C 
ATOM      9  C   UNL     1       1.664   8.367  -7.205  1.00  0.00    +0.195 C 
ATOM     10  C   UNL     1       1.195   9.452  -8.176  1.00  0.00    +0.179 C 
ATOM     11  O   UNL     1       0.483   7.956  -6.469  1.00  0.00    -0.370 OA
ATOM     12  O   UNL     1       0.667   8.925  -9.407  1.00  0.00    -0.342 OA
ATOM     13  C   UNL     1      -0.602   8.807  -6.920  1.00  0.00    +0.184 C 
ATOM     14  C   UNL     1      -0.341   7.928  -9.285  1.00  0.00    +0.279 C 
ATOM     15  C   UNL     1      -1.321   8.161  -8.113  1.00  0.00    +0.202 C 
BRANCH  14  16
ATOM     16  O   UNL     1       0.287   6.655  -9.160  1.00  0.00    -0.366 OA
ATOM     17  H   UNL     1      -0.081   6.128  -9.892  1.00  0.00    +0.213 HD
ENDBRANCH  14  16
BRANCH  15  18
ATOM     18  O   UNL     1      -1.941   6.932  -7.714  1.00  0.00    -0.385 OA
ATOM     19  H   UNL     1      -2.108   6.465  -8.561  1.00  0.00    +0.211 HD
ENDBRANCH  15  18
ENDBRANCH   7   8
ENDBRANCH   1   7
BRANCH   2  20
ATOM     20  O   UNL     1      -3.291  10.777  -6.413  1.00  0.00    -0.385 OA
ATOM     21  H   UNL     1      -2.731  10.858  -5.616  1.00  0.00    +0.211 HD
ENDBRANCH   2  20
BRANCH   3  22
ATOM     22  O   UNL     1      -4.928  12.994  -6.760  1.00  0.00    -0.387 OA
ATOM     23  H   UNL     1      -5.256  13.072  -7.681  1.00  0.00    +0.211 HD
ENDBRANCH   3  22
BRANCH   5  24
ATOM     24  C   UNL     1      -1.696  13.632  -9.954  1.00  0.00    +0.220 C 
BRANCH  24  25
ATOM     25  O   UNL     1      -0.332  13.419 -10.310  1.00  0.00    -0.245 OA
BRANCH  25  26
ATOM     26  S   UNL     1       0.001  12.215 -11.346  1.00  0.00    +0.397 S 
ATOM     27  O   UNL     1       1.361  11.762 -11.156  1.00  0.00    -0.169 OA
ATOM     28  O   UNL     1      -0.515  12.579 -12.646  1.00  0.00    -0.169 OA
BRANCH  26  29
ATOM     29  O   UNL     1      -0.979  11.048 -10.828  1.00  0.00    -0.264 OA
ATOM     30  H   UNL     1      -1.810  11.480 -10.543  1.00  0.00    +0.236 HD
ENDBRANCH  26  29
ENDBRANCH  25  26
ENDBRANCH  24  25
ENDBRANCH   5  24
BRANCH   4  31
ATOM     31  O   UNL     1      -4.173  14.207  -8.922  1.00  0.00    -0.387 OA
ATOM     32  H   UNL     1      -4.460  13.269  -8.981  1.00  0.00    +0.211 HD
ENDBRANCH   4  31
TORSDOF 11
ENDMDL
MODEL 2
REMARK VINA RESULT:    -6.628     12.020     15.078
REMARK INTER + INTRA:         -11.414
REMARK INTER:                 -10.371
REMARK INTRA:                  -1.043
REMARK UNBOUND:                -1.686
REMARK SMILES O=S(=O)(O)OC[C@@H]1O[C@H](O[C@H]2[C@@H]3OC[C@H]2O[C@@H](O)[C@H]3O)[C@@H](O)[C@H](O)[C@@H]1O
REMARK SMILES IDX 9 1 21 2 23 3 25 4 7 5 8 6 10 7 11 8 14 9 15 10 13 11 16 12
REMARK SMILES IDX 12 13 17 14 19 15 18 16 20 18 22 20 24 22 6 24 5 25 2 26
REMARK SMILES IDX 1 27 3 28 4 29 26 31
REMARK H PARENT 18 17 20 19 22 21 24 23 4 30 26 32
ROOT
ATOM      1  C   UNL     1       9.921   4.065 -12.337  1.00  0.00    +0.282 C 
ATOM      2  C   UNL     1       9.394   3.809 -10.911  1.00  0.00    +0.202 C 
ATOM      3  C   UNL     1       8.089   4.568 -10.745  1.00  0.00    +0.179 C 
ATOM      4  C   UNL     1       7.043   3.992 -11.703  1.00  0.00    +0.177 C 
ATOM      5  C   UNL     1       7.643   3.564 -13.064  1.00  0.00    +0.180 C 
ATOM      6  O   UNL     1       8.907   4.201 -13.330  1.00  0.00    -0.341 OA
ENDROOT
BRANCH   1   7
ATOM      7  O   UNL     1      10.874   3.042 -12.641  1.00  0.00    -0.341 OA
BRANCH   7   8
ATOM      8  C   UNL     1      12.021   3.537 -13.324  1.00  0.00    +0.184 C 
ATOM      9  C   UNL     1      13.580   3.493 -15.075  1.00  0.00    +0.195 C 
ATOM     10  C   UNL     1      12.129   3.108 -14.780  1.00  0.00    +0.179 C 
ATOM     11  O   UNL     1      14.302   3.297 -13.831  1.00  0.00    -0.370 OA
ATOM     12  O   UNL     1      11.876   1.697 -14.907  1.00  0.00    -0.342 OA
ATOM     13  C   UNL     1      13.319   2.902 -12.839  1.00  0.00    +0.184 C 
ATOM     14  C   UNL     1      12.752   0.833 -14.191  1.00  0.00    +0.279 C 
ATOM     15  C   UNL     1      13.182   1.374 -12.810  1.00  0.00    +0.202 C 
BRANCH  14  16
ATOM     16  O   UNL     1      13.896   0.569 -15.000  1.00  0.00    -0.366 OA
ATOM     17  H   UNL     1      14.649   0.880 -14.466  1.00  0.00    +0.213 HD
ENDBRANCH  14  16
BRANCH  15  18
ATOM     18  O   UNL     1      14.413   0.772 -12.387  1.00  0.00    -0.385 OA
ATOM     19  H   UNL     1      14.166  -0.157 -12.189  1.00  0.00    +0.211 HD
ENDBRANCH  15  18
ENDBRANCH   7   8
ENDBRANCH   1   7
BRANCH   2  20
ATOM     20  O   UNL     1      10.331   4.257  -9.917  1.00  0.00    -0.385 OA
ATOM     21  H   UNL     1      10.417   3.523  -9.276  1.00  0.00    +0.211 HD
ENDBRANCH   2  20
BRANCH   3  22
ATOM     22  O   UNL     1       7.610   4.451  -9.395  1.00  0.00    -0.387 OA
ATOM     23  H   UNL     1       7.355   3.509  -9.301  1.00  0.00    +0.211 HD
ENDBRANCH   3  22
BRANCH   5  24
ATOM     24  C   UNL     1       7.706   2.044 -13.300  1.00  0.00    +0.220 C 
BRANCH  24  25
ATOM     25  O   UNL     1       6.411   1.592 -13.689  1.00  0.00    -0.245 OA
BRANCH  25  26
ATOM     26  S   UNL     1       6.249   0.939 -15.166  1.00  0.00    +0.397 S 
ATOM     27  O   UNL     1       5.021   0.180 -15.238  1.00  0.00    -0.169 OA
ATOM     28  O   UNL     1       7.523   0.383 -15.559  1.00  0.00    -0.169 OA
BRANCH  26  29
ATOM     29  O   UNL     1       6.069   2.246 -16.090  1.00  0.00    -0.264 OA
ATOM     30  H   UNL     1       6.250   1.970 -17.012  1.00  0.00    +0.236 HD
ENDBRANCH  26  29
ENDBRANCH  25  26
ENDBRANCH  24  25
ENDBRANCH   5  24
BRANCH   4  31
ATOM     31  O   UNL     1       6.369   2.903 -11.062  1.00  0.00    -0.387 OA
ATOM     32  H   UNL     1       7.090   2.307 -10.756  1.00  0.00    +0.211 HD
ENDBRANCH   4  31
TORSDOF 11
ENDMDL
MODEL 3
REMARK VINA RESULT:    -6.464      1.734      2.215
REMARK INTER + INTRA:         -11.173
REMARK INTER:                 -10.171
REMARK INTRA:                  -1.002
REMARK UNBOUND:                -1.686
REMARK SMILES O=S(=O)(O)OC[C@@H]1O[C@H](O[C@H]2[C@@H]3OC[C@H]2O[C@@H](O)[C@H]3O)[C@@H](O)[C@H](O)[C@@H]1O
REMARK SMILES IDX 9 1 21 2 23 3 25 4 7 5 8 6 10 7 11 8 14 9 15 10 13 11 16 12
REMARK SMILES IDX 12 13 17 14 19 15 18 16 20 18 22 20 24 22 6 24 5 25 2 26
REMARK SMILES IDX 1 27 3 28 4 29 26 31
REMARK H PARENT 18 17 20 19 22 21 24 23 4 30 26 32
ROOT
ATOM      1  C   UNL     1      -1.521  12.159  -7.869  1.00  0.00    +0.282 C 
ATOM      2  C   UNL     1      -2.955  11.910  -7.362  1.00  0.00    +0.202 C 
ATOM      3  C   UNL     1      -3.624  13.258  -7.153  1.00  0.00    +0.179 C 
ATOM      4  C   UNL     1      -3.760  13.970  -8.501  1.00  0.00    +0.177 C 
ATOM      5  C   UNL     1      -2.551  13.726  -9.436  1.00  0.00    +0.180 C 
ATOM      6  O   UNL     1      -1.379  13.298  -8.716  1.00  0.00    -0.341 OA
ENDROOT
BRANCH   1   7
ATOM      7  O   UNL     1      -1.053  10.949  -8.470  1.00  0.00    -0.341 OA
BRANCH   7   8
ATOM      8  C   UNL     1      -0.124  10.245  -7.652  1.00  0.00    +0.184 C 
ATOM      9  C   UNL     1       1.611   8.703  -7.329  1.00  0.00    +0.195 C 
ATOM     10  C   UNL     1       1.052   9.639  -8.402  1.00  0.00    +0.179 C 
ATOM     11  O   UNL     1       0.466   8.249  -6.563  1.00  0.00    -0.370 OA
ATOM     12  O   UNL     1       0.595   8.948  -9.579  1.00  0.00    -0.342 OA
ATOM     13  C   UNL     1      -0.691   8.943  -7.098  1.00  0.00    +0.184 C 
ATOM     14  C   UNL     1      -0.313   7.873  -9.366  1.00  0.00    +0.279 C 
ATOM     15  C   UNL     1      -1.327   8.119  -8.227  1.00  0.00    +0.202 C 
BRANCH  14  16
ATOM     16  O   UNL     1       0.434   6.685  -9.117  1.00  0.00    -0.366 OA
ATOM     17  H   UNL     1       0.112   6.050  -9.781  1.00  0.00    +0.213 HD
ENDBRANCH  14  16
BRANCH  15  18
ATOM     18  O   UNL     1      -1.830   6.879  -7.715  1.00  0.00    -0.385 OA
ATOM     19  H   UNL     1      -1.174   6.621  -7.031  1.00  0.00    +0.211 HD
ENDBRANCH  15  18
ENDBRANCH   7   8
ENDBRANCH   1   7
BRANCH   2  20
ATOM     20  O   UNL     1      -2.954  11.185  -6.120  1.00  0.00    -0.385 OA
ATOM     21  H   UNL     1      -2.291  11.623  -5.552  1.00  0.00    +0.211 HD
ENDBRANCH   2  20
BRANCH   3  22
ATOM     22  O   UNL     1      -4.930  13.085  -6.576  1.00  0.00    -0.387 OA
ATOM     23  H   UNL     1      -5.517  12.898  -7.338  1.00  0.00    +0.211 HD
ENDBRANCH   3  22
BRANCH   5  24
ATOM     24  C   UNL     1      -2.838  12.826 -10.652  1.00  0.00    +0.220 C 
BRANCH  24  25
ATOM     25  O   UNL     1      -2.633  13.589 -11.838  1.00  0.00    -0.245 OA
BRANCH  25  26
ATOM     26  S   UNL     1      -3.946  14.125 -12.629  1.00  0.00    +0.397 S 
ATOM     27  O   UNL     1      -3.749  15.496 -13.040  1.00  0.00    -0.169 OA
ATOM     28  O   UNL     1      -5.119  13.700 -11.901  1.00  0.00    -0.169 OA
BRANCH  26  29
ATOM     29  O   UNL     1      -3.933  13.211 -13.954  1.00  0.00    -0.264 OA
ATOM     30  H   UNL     1      -4.666  12.569 -13.865  1.00  0.00    +0.236 HD
ENDBRANCH  26  29
ENDBRANCH  25  26
ENDBRANCH  24  25
ENDBRANCH   5  24
BRANCH   4  31
ATOM     31  O   UNL     1      -4.988  13.574  -9.120  1.00  0.00    -0.387 OA
ATOM     32  H   UNL     1      -4.723  13.208  -9.994  1.00  0.00    +0.211 HD
ENDBRANCH   4  31
TORSDOF 11
ENDMDL
MODEL 4
REMARK VINA RESULT:    -6.212      1.900      5.842
REMARK INTER + INTRA:         -10.803
REMARK INTER:                  -9.750
REMARK INTRA:                  -1.053
REMARK UNBOUND:                -1.686
REMARK SMILES O=S(=O)(O)OC[C@@H]1O[C@H](O[C@H]2[C@@H]3OC[C@H]2O[C@@H](O)[C@H]3O)[C@@H](O)[C@H](O)[C@@H]1O
REMARK SMILES IDX 9 1 21 2 23 3 25 4 7 5 8 6 10 7 11 8 14 9 15 10 13 11 16 12
REMARK SMILES IDX 12 13 17 14 19 15 18 16 20 18 22 20 24 22 6 24 5 25 2 26
REMARK SMILES IDX 1 27 3 28 4 29 26 31
REMARK H PARENT 18 17 20 19 22 21 24 23 4 30 26 32
ROOT
ATOM      1  C   UNL     1      -1.215  11.080  -8.761  1.00  0.00    +0.282 C 
ATOM      2  C   UNL     1      -0.779  10.693  -7.335  1.00  0.00    +0.202 C 
ATOM      3  C   UNL     1      -0.184   9.296  -7.384  1.00  0.00    +0.179 C 
ATOM      4  C   UNL     1       1.089   9.318  -8.234  1.00  0.00    +0.177 C 
ATOM      5  C   UNL     1       0.987  10.272  -9.448  1.00  0.00    +0.180 C 
ATOM      6  O   UNL     1      -0.378  10.570  -9.798  1.00  0.00    -0.341 OA
ENDROOT
BRANCH   1   7
ATOM      7  O   UNL     1      -1.358  12.503  -8.804  1.00  0.00    -0.341 OA
BRANCH   7   8
ATOM      8  C   UNL     1      -2.354  12.934  -9.725  1.00  0.00    +0.184 C 
ATOM      9  C   UNL     1      -3.677  14.583 -10.737  1.00  0.00    +0.195 C 
ATOM     10  C   UNL     1      -2.321  14.419 -10.050  1.00  0.00    +0.179 C 
ATOM     11  O   UNL     1      -4.566  13.635 -10.091  1.00  0.00    -0.370 OA
ATOM     12  O   UNL     1      -2.196  15.194  -8.844  1.00  0.00    -0.342 OA
ATOM     13  C   UNL     1      -3.760  12.897  -9.136  1.00  0.00    +0.184 C 
ATOM     14  C   UNL     1      -3.237  15.040  -7.885  1.00  0.00    +0.279 C 
ATOM     15  C   UNL     1      -3.781  13.598  -7.771  1.00  0.00    +0.202 C 
BRANCH  14  16
ATOM     16  O   UNL     1      -4.291  15.945  -8.203  1.00  0.00    -0.366 OA
ATOM     17  H   UNL     1      -4.719  16.132  -7.349  1.00  0.00    +0.213 HD
ENDBRANCH  14  16
BRANCH  15  18
ATOM     18  O   UNL     1      -5.109  13.596  -7.231  1.00  0.00    -0.385 OA
ATOM     19  H   UNL     1      -5.587  12.938  -7.781  1.00  0.00    +0.211 HD
ENDBRANCH  15  18
ENDBRANCH   7   8
ENDBRANCH   1   7
BRANCH   2  20
ATOM     20  O   UNL     1      -1.893  10.700  -6.425  1.00  0.00    -0.385 OA
ATOM     21  H   UNL     1      -2.129   9.763  -6.279  1.00  0.00    +0.211 HD
ENDBRANCH   2  20
BRANCH   3  22
ATOM     22  O   UNL     1       0.139   8.842  -6.059  1.00  0.00    -0.387 OA
ATOM     23  H   UNL     1      -0.435   9.371  -5.466  1.00  0.00    +0.211 HD
ENDBRANCH   3  22
BRANCH   5  24
ATOM     24  C   UNL     1       1.844  11.547  -9.350  1.00  0.00    +0.220 C 
BRANCH  24  25
ATOM     25  O   UNL     1       3.171  11.233  -9.767  1.00  0.00    -0.245 OA
BRANCH  25  26
ATOM     26  S   UNL     1       3.551  11.474 -11.327  1.00  0.00    +0.397 S 
ATOM     27  O   UNL     1       2.404  11.987 -12.041  1.00  0.00    -0.169 OA
ATOM     28  O   UNL     1       4.299  10.328 -11.794  1.00  0.00    -0.169 OA
BRANCH  26  29
ATOM     29  O   UNL     1       4.636  12.659 -11.227  1.00  0.00    -0.264 OA
ATOM     30  H   UNL     1       4.295  13.403 -11.763  1.00  0.00    +0.236 HD
ENDBRANCH  26  29
ENDBRANCH  25  26
ENDBRANCH  24  25
ENDBRANCH   5  24
BRANCH   4  31
ATOM     31  O   UNL     1       2.204   9.649  -7.400  1.00  0.00    -0.387 OA
ATOM     32  H   UNL     1       2.687  10.350  -7.893  1.00  0.00    +0.211 HD
ENDBRANCH   4  31
TORSDOF 11
ENDMDL
MODEL 5
REMARK VINA RESULT:    -6.090      2.425      5.568
REMARK INTER + INTRA:         -10.624
REMARK INTER:                  -9.499
REMARK INTRA:                  -1.125
REMARK UNBOUND:                -1.686
REMARK SMILES O=S(=O)(O)OC[C@@H]1O[C@H](O[C@H]2[C@@H]3OC[C@H]2O[C@@H](O)[C@H]3O)[C@@H](O)[C@H](O)[C@@H]1O
REMARK SMILES IDX 9 1 21 2 23 3 25 4 7 5 8 6 10 7 11 8 14 9 15 10 13 11 16 12
REMARK SMILES IDX 12 13 17 14 19 15 18 16 20 18 22 20 24 22 6 24 5 25 2 26
REMARK SMILES IDX 1 27 3 28 4 29 26 31
REMARK H PARENT 18 17 20 19 22 21 24 23 4 30 26 32
ROOT
ATOM      1  C   UNL     1      -1.557  12.973  -8.931  1.00  0.00    +0.282 C 
ATOM      2  C   UNL     1      -0.682  13.443  -7.752  1.00  0.00    +0.202 C 
ATOM      3  C   UNL     1      -1.452  13.201  -6.465  1.00  0.00    +0.179 C 
ATOM      4  C   UNL     1      -1.662  11.696  -6.276  1.00  0.00    +0.177 C 
ATOM      5  C   UNL     1      -1.921  10.951  -7.608  1.00  0.00    +0.180 C 
ATOM      6  O   UNL     1      -2.371  11.836  -8.652  1.00  0.00    -0.341 OA
ENDROOT
BRANCH   1   7
ATOM      7  O   UNL     1      -0.702  12.788 -10.063  1.00  0.00    -0.341 OA
BRANCH   7   8
ATOM      8  C   UNL     1      -1.336  12.089 -11.129  1.00  0.00    +0.184 C 
ATOM      9  C   UNL     1      -1.294  10.786 -13.077  1.00  0.00    +0.195 C 
ATOM     10  C   UNL     1      -0.458  11.062 -11.827  1.00  0.00    +0.179 C 
ATOM     11  O   UNL     1      -1.958  12.037 -13.393  1.00  0.00    -0.370 OA
ATOM     12  O   UNL     1       0.835  11.622 -12.118  1.00  0.00    -0.342 OA
ATOM     13  C   UNL     1      -1.601  12.972 -12.342  1.00  0.00    +0.184 C 
ATOM     14  C   UNL     1       0.850  12.769 -12.962  1.00  0.00    +0.279 C 
ATOM     15  C   UNL     1      -0.329  13.739 -12.727  1.00  0.00    +0.202 C 
BRANCH  14  16
ATOM     16  O   UNL     1       0.874  12.337 -14.320  1.00  0.00    -0.366 OA
ATOM     17  H   UNL     1       1.733  11.889 -14.419  1.00  0.00    +0.213 HD
ENDBRANCH  14  16
BRANCH  15  18
ATOM     18  O   UNL     1      -0.565  14.545 -13.889  1.00  0.00    -0.385 OA
ATOM     19  H   UNL     1       0.333  14.820 -14.173  1.00  0.00    +0.211 HD
ENDBRANCH  15  18
ENDBRANCH   7   8
ENDBRANCH   1   7
BRANCH   2  20
ATOM     20  O   UNL     1      -0.366  14.841  -7.857  1.00  0.00    -0.385 OA
ATOM     21  H   UNL     1      -1.110  15.252  -8.340  1.00  0.00    +0.211 HD
ENDBRANCH   2  20
BRANCH   3  22
ATOM     22  O   UNL     1      -0.725  13.722  -5.340  1.00  0.00    -0.387 OA
ATOM     23  H   UNL     1       0.141  13.998  -5.708  1.00  0.00    +0.211 HD
ENDBRANCH   3  22
BRANCH   5  24
ATOM     24  C   UNL     1      -0.772  10.043  -8.082  1.00  0.00    +0.220 C 
BRANCH  24  25
ATOM     25  O   UNL     1      -0.911   8.772  -7.452  1.00  0.00    -0.245 OA
BRANCH  25  26
ATOM     26  S   UNL     1       0.442   7.929  -7.143  1.00  0.00    +0.397 S 
ATOM     27  O   UNL     1       0.362   7.332  -5.828  1.00  0.00    -0.169 OA
ATOM     28  O   UNL     1       1.576   8.720  -7.562  1.00  0.00    -0.169 OA
BRANCH  26  29
ATOM     29  O   UNL     1       0.349   6.741  -8.225  1.00  0.00    -0.264 OA
ATOM     30  H   UNL     1      -0.382   6.154  -7.942  1.00  0.00    +0.236 HD
ENDBRANCH  26  29
ENDBRANCH  25  26
ENDBRANCH  24  25
ENDBRANCH   5  24
BRANCH   4  31
ATOM     31  O   UNL     1      -0.536  11.149  -5.581  1.00  0.00    -0.387 OA
ATOM     32  H   UNL     1      -0.116  10.536  -6.226  1.00  0.00    +0.211 HD
ENDBRANCH   4  31
TORSDOF 11
ENDMDL
MODEL 6
REMARK VINA RESULT:    -6.063     11.884     14.289
REMARK INTER + INTRA:         -10.584
REMARK INTER:                  -8.812
REMARK INTRA:                  -1.773
REMARK UNBOUND:                -1.686
REMARK SMILES O=S(=O)(O)OC[C@@H]1O[C@H](O[C@H]2[C@@H]3OC[C@H]2O[C@@H](O)[C@H]3O)[C@@H](O)[C@H](O)[C@@H]1O
REMARK SMILES IDX 9 1 21 2 23 3 25 4 7 5 8 6 10 7 11 8 14 9 15 10 13 11 16 12
REMARK SMILES IDX 12 13 17 14 19 15 18 16 20 18 22 20 24 22 6 24 5 25 2 26
REMARK SMILES IDX 1 27 3 28 4 29 26 31
REMARK H PARENT 18 17 20 19 22 21 24 23 4 30 26 32
ROOT
ATOM      1  C   UNL     1       8.160   4.092 -13.528  1.00  0.00    +0.282 C 
ATOM      2  C   UNL     1       7.322   2.827 -13.258  1.00  0.00    +0.202 C 
ATOM      3  C   UNL     1       6.603   2.452 -14.543  1.00  0.00    +0.179 C 
ATOM      4  C   UNL     1       7.635   2.069 -15.607  1.00  0.00    +0.177 C 
ATOM      5  C   UNL     1       8.919   2.929 -15.539  1.00  0.00    +0.180 C 
ATOM      6  O   UNL     1       8.710   4.172 -14.841  1.00  0.00    -0.341 OA
ENDROOT
BRANCH   1   7
ATOM      7  O   UNL     1       9.148   4.190 -12.498  1.00  0.00    -0.341 OA
BRANCH   7   8
ATOM      8  C   UNL     1       8.822   5.158 -11.506  1.00  0.00    +0.184 C 
ATOM      9  C   UNL     1       9.205   7.161 -10.350  1.00  0.00    +0.195 C 
ATOM     10  C   UNL     1       9.459   6.523 -11.717  1.00  0.00    +0.179 C 
ATOM     11  O   UNL     1       9.262   6.075  -9.389  1.00  0.00    -0.370 OA
ATOM     12  O   UNL     1      10.857   6.382 -12.028  1.00  0.00    -0.342 OA
ATOM     13  C   UNL     1       9.455   4.857 -10.153  1.00  0.00    +0.184 C 
ATOM     14  C   UNL     1      11.660   5.737 -11.046  1.00  0.00    +0.279 C 
ATOM     15  C   UNL     1      10.953   4.569 -10.322  1.00  0.00    +0.202 C 
BRANCH  14  16
ATOM     16  O   UNL     1      12.101   6.711 -10.104  1.00  0.00    -0.366 OA
ATOM     17  H   UNL     1      13.070   6.723 -10.201  1.00  0.00    +0.213 HD
ENDBRANCH  14  16
BRANCH  15  18
ATOM     18  O   UNL     1      11.559   4.319  -9.046  1.00  0.00    -0.385 OA
ATOM     19  H   UNL     1      12.502   4.552  -9.183  1.00  0.00    +0.211 HD
ENDBRANCH  15  18
ENDBRANCH   7   8
ENDBRANCH   1   7
BRANCH   2  20
ATOM     20  O   UNL     1       6.351   3.051 -12.222  1.00  0.00    -0.385 OA
ATOM     21  H   UNL     1       5.613   3.534 -12.642  1.00  0.00    +0.211 HD
ENDBRANCH   2  20
BRANCH   3  22
ATOM     22  O   UNL     1       5.720   1.340 -14.318  1.00  0.00    -0.387 OA
ATOM     23  H   UNL     1       6.173   0.574 -14.729  1.00  0.00    +0.211 HD
ENDBRANCH   3  22
BRANCH   5  24
ATOM     24  C   UNL     1      10.172   2.192 -15.032  1.00  0.00    +0.220 C 
BRANCH  24  25
ATOM     25  O   UNL     1      11.324   2.830 -15.578  1.00  0.00    -0.245 OA
BRANCH  25  26
ATOM     26  S   UNL     1      12.288   3.651 -14.561  1.00  0.00    +0.397 S 
ATOM     27  O   UNL     1      13.549   3.944 -15.204  1.00  0.00    -0.169 OA
ATOM     28  O   UNL     1      12.213   3.024 -13.260  1.00  0.00    -0.169 OA
BRANCH  26  29
ATOM     29  O   UNL     1      11.490   5.039 -14.393  1.00  0.00    -0.264 OA
ATOM     30  H   UNL     1      10.810   5.064 -15.096  1.00  0.00    +0.236 HD
ENDBRANCH  26  29
ENDBRANCH  25  26
ENDBRANCH  24  25
ENDBRANCH   5  24
BRANCH   4  31
ATOM     31  O   UNL     1       7.933   0.673 -15.491  1.00  0.00    -0.387 OA
ATOM     32  H   UNL     1       7.655   0.285 -16.351  1.00  0.00    +0.211 HD
ENDBRANCH   4  31
TORSDOF 11
ENDMDL
MODEL 7
REMARK VINA RESULT:    -6.055     10.516     12.381
REMARK INTER + INTRA:         -10.573
REMARK INTER:                  -9.679
REMARK INTRA:                  -0.894
REMARK UNBOUND:                -1.686
REMARK SMILES O=S(=O)(O)OC[C@@H]1O[C@H](O[C@H]2[C@@H]3OC[C@H]2O[C@@H](O)[C@H]3O)[C@@H](O)[C@H](O)[C@@H]1O
REMARK SMILES IDX 9 1 21 2 23 3 25 4 7 5 8 6 10 7 11 8 14 9 15 10 13 11 16 12
REMARK SMILES IDX 12 13 17 14 19 15 18 16 20 18 22 20 24 22 6 24 5 25 2 26
REMARK SMILES IDX 1 27 3 28 4 29 26 31
REMARK H PARENT 18 17 20 19 22 21 24 23 4 30 26 32
ROOT
ATOM      1  C   UNL     1       9.188   4.568 -12.077  1.00  0.00    +0.282 C 
ATOM      2  C   UNL     1       8.335   4.914 -10.841  1.00  0.00    +0.202 C 
ATOM      3  C   UNL     1       9.173   5.778  -9.914  1.00  0.00    +0.179 C 
ATOM      4  C   UNL     1       9.488   7.106 -10.607  1.00  0.00    +0.177 C 
ATOM      5  C   UNL     1       9.739   6.949 -12.126  1.00  0.00    +0.180 C 
ATOM      6  O   UNL     1      10.086   5.598 -12.487  1.00  0.00    -0.341 OA
ENDROOT
BRANCH   1   7
ATOM      7  O   UNL     1       8.301   4.150 -13.118  1.00  0.00    -0.341 OA
BRANCH   7   8
ATOM      8  C   UNL     1       7.759   2.851 -12.897  1.00  0.00    +0.184 C 
ATOM      9  C   UNL     1       7.714   0.532 -13.234  1.00  0.00    +0.195 C 
ATOM     10  C   UNL     1       8.696   1.704 -13.244  1.00  0.00    +0.179 C 
ATOM     11  O   UNL     1       6.448   1.073 -13.692  1.00  0.00    -0.370 OA
ATOM     12  O   UNL     1       9.307   1.925 -14.527  1.00  0.00    -0.342 OA
ATOM     13  C   UNL     1       6.649   2.497 -13.880  1.00  0.00    +0.184 C 
ATOM     14  C   UNL     1       8.421   2.039 -15.636  1.00  0.00    +0.279 C 
ATOM     15  C   UNL     1       7.105   2.782 -15.318  1.00  0.00    +0.202 C 
BRANCH  14  16
ATOM     16  O   UNL     1       8.145   0.733 -16.137  1.00  0.00    -0.366 OA
ATOM     17  H   UNL     1       8.994   0.260 -16.068  1.00  0.00    +0.213 HD
ENDBRANCH  14  16
BRANCH  15  18
ATOM     18  O   UNL     1       6.076   2.418 -16.247  1.00  0.00    -0.385 OA
ATOM     19  H   UNL     1       6.237   3.001 -17.020  1.00  0.00    +0.211 HD
ENDBRANCH  15  18
ENDBRANCH   7   8
ENDBRANCH   1   7
BRANCH   2  20
ATOM     20  O   UNL     1       7.924   3.728 -10.139  1.00  0.00    -0.385 OA
ATOM     21  H   UNL     1       8.692   3.452  -9.601  1.00  0.00    +0.211 HD
ENDBRANCH   2  20
BRANCH   3  22
ATOM     22  O   UNL     1       8.461   6.038  -8.692  1.00  0.00    -0.387 OA
ATOM     23  H   UNL     1       7.856   5.274  -8.587  1.00  0.00    +0.211 HD
ENDBRANCH   3  22
BRANCH   5  24
ATOM     24  C   UNL     1       8.632   7.518 -13.032  1.00  0.00    +0.220 C 
BRANCH  24  25
ATOM     25  O   UNL     1       8.957   8.870 -13.348  1.00  0.00    -0.245 OA
BRANCH  25  26
ATOM     26  S   UNL     1       7.922  10.028 -12.876  1.00  0.00    +0.397 S 
ATOM     27  O   UNL     1       6.698   9.429 -12.394  1.00  0.00    -0.169 OA
ATOM     28  O   UNL     1       7.928  11.075 -13.871  1.00  0.00    -0.169 OA
BRANCH  26  29
ATOM     29  O   UNL     1       8.687  10.662 -11.609  1.00  0.00    -0.264 OA
ATOM     30  H   UNL     1       8.245  10.317 -10.807  1.00  0.00    +0.236 HD
ENDBRANCH  26  29
ENDBRANCH  25  26
ENDBRANCH  24  25
ENDBRANCH   5  24
BRANCH   4  31
ATOM     31  O   UNL     1       8.430   8.035 -10.345  1.00  0.00    -0.387 OA
ATOM     32  H   UNL     1       7.609   7.493 -10.366  1.00  0.00    +0.211 HD
ENDBRANCH   4  31
TORSDOF 11
ENDMDL
MODEL 8
REMARK VINA RESULT:    -5.984     21.900     23.760
REMARK INTER + INTRA:         -10.469
REMARK INTER:                  -9.206
REMARK INTRA:                  -1.263
REMARK UNBOUND:                -1.686
REMARK SMILES O=S(=O)(O)OC[C@@H]1O[C@H](O[C@H]2[C@@H]3OC[C@H]2O[C@@H](O)[C@H]3O)[C@@H](O)[C@H](O)[C@@H]1O
REMARK SMILES IDX 9 1 21 2 23 3 25 4 7 5 8 6 10 7 11 8 14 9 15 10 13 11 16 12
REMARK SMILES IDX 12 13 17 14 19 15 18 16 20 18 22 20 24 22 6 24 5 25 2 26
REMARK SMILES IDX 1 27 3 28 4 29 26 31
REMARK H PARENT 18 17 20 19 22 21 24 23 4 30 26 32
ROOT
ATOM      1  C   UNL     1      12.871  28.818  -4.962  1.00  0.00    +0.282 C 
ATOM      2  C   UNL     1      12.027  28.242  -6.116  1.00  0.00    +0.202 C 
ATOM      3  C   UNL     1      11.387  29.401  -6.860  1.00  0.00    +0.179 C 
ATOM      4  C   UNL     1      12.483  30.253  -7.508  1.00  0.00    +0.177 C 
ATOM      5  C   UNL     1      13.755  30.365  -6.634  1.00  0.00    +0.180 C 
ATOM      6  O   UNL     1      13.496  30.067  -5.249  1.00  0.00    -0.341 OA
ENDROOT
BRANCH   1   7
ATOM      7  O   UNL     1      13.795  27.808  -4.549  1.00  0.00    -0.341 OA
BRANCH   7   8
ATOM      8  C   UNL     1      13.524  27.307  -3.244  1.00  0.00    +0.184 C 
ATOM      9  C   UNL     1      13.641  27.422  -0.906  1.00  0.00    +0.195 C 
ATOM     10  C   UNL     1      13.634  28.337  -2.131  1.00  0.00    +0.179 C 
ATOM     11  O   UNL     1      14.310  26.204  -1.325  1.00  0.00    -0.370 OA
ATOM     12  O   UNL     1      14.843  29.105  -2.275  1.00  0.00    -0.342 OA
ATOM     13  C   UNL     1      14.605  26.359  -2.737  1.00  0.00    +0.184 C 
ATOM     14  C   UNL     1      16.063  28.373  -2.236  1.00  0.00    +0.279 C 
ATOM     15  C   UNL     1      15.992  26.990  -2.922  1.00  0.00    +0.202 C 
BRANCH  14  16
ATOM     16  O   UNL     1      16.469  28.232  -0.877  1.00  0.00    -0.366 OA
ATOM     17  H   UNL     1      17.404  27.966  -0.927  1.00  0.00    +0.213 HD
ENDBRANCH  14  16
BRANCH  15  18
ATOM     18  O   UNL     1      17.008  26.116  -2.415  1.00  0.00    -0.385 OA
ATOM     19  H   UNL     1      16.660  25.828  -1.544  1.00  0.00    +0.211 HD
ENDBRANCH  15  18
ENDBRANCH   7   8
ENDBRANCH   1   7
BRANCH   2  20
ATOM     20  O   UNL     1      10.995  27.368  -5.627  1.00  0.00    -0.385 OA
ATOM     21  H   UNL     1      10.200  27.925  -5.514  1.00  0.00    +0.211 HD
ENDBRANCH   2  20
BRANCH   3  22
ATOM     22  O   UNL     1      10.501  28.914  -7.881  1.00  0.00    -0.387 OA
ATOM     23  H   UNL     1      10.842  29.301  -8.715  1.00  0.00    +0.211 HD
ENDBRANCH   3  22
BRANCH   5  24
ATOM     24  C   UNL     1      14.981  29.601  -7.165  1.00  0.00    +0.220 C 
BRANCH  24  25
ATOM     25  O   UNL     1      15.538  30.338  -8.251  1.00  0.00    -0.245 OA
BRANCH  25  26
ATOM     26  S   UNL     1      16.268  29.504  -9.437  1.00  0.00    +0.397 S 
ATOM     27  O   UNL     1      17.404  28.784  -8.907  1.00  0.00    -0.169 OA
ATOM     28  O   UNL     1      16.371  30.360 -10.597  1.00  0.00    -0.169 OA
BRANCH  26  29
ATOM     29  O   UNL     1      15.142  28.421  -9.825  1.00  0.00    -0.264 OA
ATOM     30  H   UNL     1      15.196  27.703  -9.162  1.00  0.00    +0.236 HD
ENDBRANCH  26  29
ENDBRANCH  25  26
ENDBRANCH  24  25
ENDBRANCH   5  24
BRANCH   4  31
ATOM     31  O   UNL     1      12.783  29.724  -8.804  1.00  0.00    -0.387 OA
ATOM     32  H   UNL     1      12.541  30.442  -9.431  1.00  0.00    +0.211 HD
ENDBRANCH   4  31
TORSDOF 11
ENDMDL
MODEL 9
REMARK VINA RESULT:    -5.898      2.132      6.509
REMARK INTER + INTRA:         -10.342
REMARK INTER:                  -9.642
REMARK INTRA:                  -0.700
REMARK UNBOUND:                -1.686
REMARK SMILES O=S(=O)(O)OC[C@@H]1O[C@H](O[C@H]2[C@@H]3OC[C@H]2O[C@@H](O)[C@H]3O)[C@@H](O)[C@H](O)[C@@H]1O
REMARK SMILES IDX 9 1 21 2 23 3 25 4 7 5 8 6 10 7 11 8 14 9 15 10 13 11 16 12
REMARK SMILES IDX 12 13 17 14 19 15 18 16 20 18 22 20 24 22 6 24 5 25 2 26
REMARK SMILES IDX 1 27 3 28 4 29 26 31
REMARK H PARENT 18 17 20 19 22 21 24 23 4 30 26 32
ROOT
ATOM      1  C   UNL     1      -0.761  12.391  -8.997  1.00  0.00    +0.282 C 
ATOM      2  C   UNL     1       0.207  11.636  -9.928  1.00  0.00    +0.202 C 
ATOM      3  C   UNL     1       1.563  11.568  -9.247  1.00  0.00    +0.179 C 
ATOM      4  C   UNL     1       1.447  10.729  -7.971  1.00  0.00    +0.177 C 
ATOM      5  C   UNL     1       0.103  10.937  -7.233  1.00  0.00    +0.180 C 
ATOM      6  O   UNL     1      -0.541  12.171  -7.605  1.00  0.00    -0.341 OA
ENDROOT
BRANCH   1   7
ATOM      7  O   UNL     1      -2.096  12.084  -9.410  1.00  0.00    -0.341 OA
BRANCH   7   8
ATOM      8  C   UNL     1      -2.674  13.100 -10.223  1.00  0.00    +0.184 C 
ATOM      9  C   UNL     1      -3.311  15.317 -10.641  1.00  0.00    +0.195 C 
ATOM     10  C   UNL     1      -2.279  14.519  -9.843  1.00  0.00    +0.179 C 
ATOM     11  O   UNL     1      -4.508  14.497 -10.670  1.00  0.00    -0.370 OA
ATOM     12  O   UNL     1      -2.388  14.708  -8.421  1.00  0.00    -0.342 OA
ATOM     13  C   UNL     1      -4.174  13.253 -10.003  1.00  0.00    +0.184 C 
ATOM     14  C   UNL     1      -3.680  14.510  -7.856  1.00  0.00    +0.279 C 
ATOM     15  C   UNL     1      -4.481  13.359  -8.502  1.00  0.00    +0.202 C 
BRANCH  14  16
ATOM     16  O   UNL     1      -4.408  15.732  -7.944  1.00  0.00    -0.366 OA
ATOM     17  H   UNL     1      -5.183  15.596  -7.369  1.00  0.00    +0.213 HD
ENDBRANCH  14  16
BRANCH  15  18
ATOM     18  O   UNL     1      -5.888  13.537  -8.294  1.00  0.00    -0.385 OA
ATOM     19  H   UNL     1      -6.302  12.894  -8.909  1.00  0.00    +0.211 HD
ENDBRANCH  15  18
ENDBRANCH   7   8
ENDBRANCH   1   7
BRANCH   2  20
ATOM     20  O   UNL     1       0.347  12.305 -11.193  1.00  0.00    -0.385 OA
ATOM     21  H   UNL     1      -0.500  12.767 -11.350  1.00  0.00    +0.211 HD
ENDBRANCH   2  20
BRANCH   3  22
ATOM     22  O   UNL     1       2.534  10.968 -10.121  1.00  0.00    -0.387 OA
ATOM     23  H   UNL     1       2.672  11.629 -10.832  1.00  0.00    +0.211 HD
ENDBRANCH   3  22
BRANCH   5  24
ATOM     24  C   UNL     1      -0.867   9.743  -7.294  1.00  0.00    +0.220 C 
BRANCH  24  25
ATOM     25  O   UNL     1      -0.384   8.723  -6.424  1.00  0.00    -0.245 OA
BRANCH  25  26
ATOM     26  S   UNL     1      -0.474   7.185  -6.937  1.00  0.00    +0.397 S 
ATOM     27  O   UNL     1      -0.080   6.287  -5.876  1.00  0.00    -0.169 OA
ATOM     28  O   UNL     1       0.101   7.114  -8.261  1.00  0.00    -0.169 OA
BRANCH  26  29
ATOM     29  O   UNL     1      -2.057   7.003  -7.168  1.00  0.00    -0.264 OA
ATOM     30  H   UNL     1      -2.484   7.839  -6.889  1.00  0.00    +0.236 HD
ENDBRANCH  26  29
ENDBRANCH  25  26
ENDBRANCH  24  25
ENDBRANCH   5  24
BRANCH   4  31
ATOM     31  O   UNL     1       1.658   9.350  -8.296  1.00  0.00    -0.387 OA
ATOM     32  H   UNL     1       2.229   9.007  -7.573  1.00  0.00    +0.211 HD
ENDBRANCH   4  31
TORSDOF 11
ENDMDL
