MODEL 1
REMARK VINA RESULT:    -9.522      0.000      0.000
REMARK INTER + INTRA:         -23.970
REMARK INTER:                 -20.654
REMARK INTRA:                  -3.316
REMARK UNBOUND:                -3.316
REMARK SMILES OC[C@@H]1O[C@H](O[C@H]2[C@@H]3OC[C@H]2O[C@@H](O[C@@H]2[C@H](O)[C@@H](O[C@@H]4[C@@H]5OC[C@H]4O[C@H](O[C@@H]4[C@@H](O)[C@H](O)O[C@@H](CO)[C@H]4O)[C@@H]5O)O[C@H](CO)[C@H]2O)[C@H]3O)[C@@H](O)[C@H](O[C@@H]2O[C@@H]3CO[C@H]([C@H]2O)[C@@H]3O)[C@H]1O
REMARK SMILES IDX 15 1 45 2 42 3 41 4 18 5 16 6 14 7 13 8 7 9 11 10 8 11 10 12
REMARK SMILES IDX 12 13 9 14 47 15 6 16 5 17 51 18 63 19 49 20 3 21 4 22 52 23
REMARK SMILES IDX 53 24 56 25 55 26 57 27 61 28 54 29 58 30 59 31 62 32 60 34
REMARK SMILES IDX 64 36 50 38 2 40 1 41 48 43 46 45 17 47 43 49 44 50 19 52
REMARK SMILES IDX 20 53 24 54 21 55 23 56 25 57 22 58 39 59 26 60 40 61 27 63
REMARK SMILES IDX 28 64 37 65 29 66 34 67 31 68 33 69 38 70 30 72 35 74 36 75
REMARK SMILES IDX 32 77
REMARK H PARENT 62 33 60 35 64 37 50 39 1 42 48 44 46 46 17 48 44 51 40 62
REMARK H PARENT 38 71 30 73 36 76 32 78
ROOT
ATOM      1  C   UNL     1     -12.105 -13.726   2.473  1.00  0.00    +0.186 C 
ATOM      2  C   UNL     1     -12.447 -15.213   2.705  1.00  0.00    +0.177 C 
ATOM      3  C   UNL     1     -12.398 -15.601   4.199  1.00  0.00    +0.178 C 
ATOM      4  O   UNL     1     -11.601 -14.688   4.956  1.00  0.00    -0.341 OA
ATOM      5  C   UNL     1     -12.155 -13.371   4.986  1.00  0.00    +0.282 C 
ATOM      6  C   UNL     1     -12.724 -12.909   3.615  1.00  0.00    +0.202 C 
ENDROOT
BRANCH   1   7
ATOM      7  O   UNL     1     -10.696 -13.393   2.442  1.00  0.00    -0.341 OA
BRANCH   7   8
ATOM      8  C   UNL     1     -10.166 -13.218   1.121  1.00  0.00    +0.282 C 
ATOM      9  C   UNL     1      -7.370 -12.528   0.568  1.00  0.00    +0.184 C 
ATOM     10  C   UNL     1      -7.804 -13.738   1.385  1.00  0.00    +0.179 C 
ATOM     11  C   UNL     1      -8.273 -11.511   1.263  1.00  0.00    +0.184 C 
ATOM     12  C   UNL     1      -7.771 -13.168   2.803  1.00  0.00    +0.195 C 
ATOM     13  O   UNL     1      -9.106 -14.169   0.929  1.00  0.00    -0.341 OA
ATOM     14  O   UNL     1      -8.133 -11.773   2.681  1.00  0.00    -0.370 OA
ATOM     15  C   UNL     1      -9.738 -11.746   0.867  1.00  0.00    +0.202 C 
BRANCH   9  16
ATOM     16  O   UNL     1      -7.654 -12.606  -0.822  1.00  0.00    -0.341 OA
BRANCH  16  17
ATOM     17  C   UNL     1      -7.516 -11.364  -1.539  1.00  0.00    +0.282 C 
ATOM     18  C   UNL     1      -7.516 -10.540  -3.976  1.00  0.00    +0.186 C 
ATOM     19  C   UNL     1      -6.378  -9.652  -3.452  1.00  0.00    +0.177 C 
ATOM     20  C   UNL     1      -7.874 -11.678  -3.007  1.00  0.00    +0.202 C 
ATOM     21  C   UNL     1      -5.473 -10.378  -2.456  1.00  0.00    +0.178 C 
ATOM     22  O   UNL     1      -6.200 -10.868  -1.327  1.00  0.00    -0.341 OA
BRANCH  18  23
ATOM     23  O   UNL     1      -7.082 -11.087  -5.242  1.00  0.00    -0.341 OA
BRANCH  23  24
ATOM     24  C   UNL     1      -7.661 -10.440  -6.383  1.00  0.00    +0.282 C 
ATOM     25  C   UNL     1      -9.322 -12.874  -6.280  1.00  0.00    +0.195 C 
ATOM     26  C   UNL     1      -9.816 -11.517  -6.778  1.00  0.00    +0.178 C 
ATOM     27  O   UNL     1      -8.226 -13.243  -7.151  1.00  0.00    -0.370 OA
ATOM     28  C   UNL     1      -9.541 -11.647  -8.264  1.00  0.00    +0.177 C 
ATOM     29  O   UNL     1      -9.092 -10.394  -6.243  1.00  0.00    -0.341 OA
ATOM     30  C   UNL     1      -8.128 -12.211  -8.157  1.00  0.00    +0.183 C 
ATOM     31  C   UNL     1      -7.156 -11.119  -7.689  1.00  0.00    +0.202 C 
BRANCH  28  32
ATOM     32  O   UNL     1      -9.617 -10.416  -8.970  1.00  0.00    -0.387 OA
ATOM     33  H   UNL     1     -10.251  -9.846  -8.495  1.00  0.00    +0.211 HD
ENDBRANCH  28  32
BRANCH  31  34
ATOM     34  O   UNL     1      -6.983 -10.140  -8.729  1.00  0.00    -0.385 OA
ATOM     35  H   UNL     1      -7.821 -10.128  -9.243  1.00  0.00    +0.211 HD
ENDBRANCH  31  34
ENDBRANCH  23  24
ENDBRANCH  18  23
BRANCH  19  36
ATOM     36  O   UNL     1      -6.981  -8.527  -2.786  1.00  0.00    -0.387 OA
ATOM     37  H   UNL     1      -7.949  -8.635  -2.830  1.00  0.00    +0.211 HD
ENDBRANCH  19  36
BRANCH  20  38
ATOM     38  O   UNL     1      -9.277 -11.987  -3.125  1.00  0.00    -0.385 OA
ATOM     39  H   UNL     1      -9.497 -11.896  -4.076  1.00  0.00    +0.211 HD
ENDBRANCH  20  38
BRANCH  21  40
ATOM     40  C   UNL     1      -4.615 -11.502  -3.053  1.00  0.00    +0.191 C 
BRANCH  40  41
ATOM     41  O   UNL     1      -4.204 -11.131  -4.377  1.00  0.00    -0.394 OA
ATOM     42  H   UNL     1      -3.573 -11.834  -4.655  1.00  0.00    +0.210 HD
ENDBRANCH  40  41
ENDBRANCH  21  40
ENDBRANCH  16  17
ENDBRANCH   9  16
BRANCH  15  43
ATOM     43  O   UNL     1     -10.595 -10.831   1.563  1.00  0.00    -0.385 OA
ATOM     44  H   UNL     1     -11.463 -11.281   1.598  1.00  0.00    +0.211 HD
ENDBRANCH  15  43
ENDBRANCH   7   8
ENDBRANCH   1   7
BRANCH   2  45
ATOM     45  O   UNL     1     -13.767 -15.477   2.202  1.00  0.00    -0.387 OA
ATOM     46  H   UNL     1     -13.957 -14.762   1.559  1.00  0.00    +0.211 HD
ENDBRANCH   2  45
BRANCH   6  47
ATOM     47  O   UNL     1     -12.458 -11.508   3.411  1.00  0.00    -0.385 OA
ATOM     48  H   UNL     1     -11.678 -11.305   3.963  1.00  0.00    +0.211 HD
ENDBRANCH   6  47
BRANCH   3  49
ATOM     49  C   UNL     1     -11.821 -17.012   4.377  1.00  0.00    +0.191 C 
BRANCH  49  50
ATOM     50  O   UNL     1     -12.162 -17.857   3.282  1.00  0.00    -0.394 OA
ATOM     51  H   UNL     1     -12.603 -17.283   2.615  1.00  0.00    +0.210 HD
ENDBRANCH  49  50
ENDBRANCH   3  49
BRANCH   5  52
ATOM     52  O   UNL     1     -13.198 -13.279   5.964  1.00  0.00    -0.341 OA
BRANCH  52  53
ATOM     53  C   UNL     1     -13.094 -12.126   6.804  1.00  0.00    +0.184 C 
ATOM     54  C   UNL     1     -14.321 -11.256   6.594  1.00  0.00    +0.179 C 
ATOM     55  C   UNL     1     -13.323 -12.421   8.291  1.00  0.00    +0.184 C 
ATOM     56  C   UNL     1     -15.399 -12.094   7.289  1.00  0.00    +0.195 C 
ATOM     57  O   UNL     1     -14.120  -9.968   7.217  1.00  0.00    -0.341 OA
ATOM     58  O   UNL     1     -14.742 -12.708   8.426  1.00  0.00    -0.370 OA
ATOM     59  C   UNL     1     -13.022 -11.153   9.099  1.00  0.00    +0.202 C 
ATOM     60  C   UNL     1     -13.973 -10.016   8.642  1.00  0.00    +0.282 C 
BRANCH  59  61
ATOM     61  O   UNL     1     -11.646 -10.779   8.920  1.00  0.00    -0.385 OA
ATOM     62  H   UNL     1     -11.377 -11.167   8.064  1.00  0.00    +0.211 HD
ENDBRANCH  59  61
BRANCH  60  63
ATOM     63  O   UNL     1     -13.398  -8.774   9.065  1.00  0.00    -0.341 OA
BRANCH  63  64
ATOM     64  C   UNL     1     -14.133  -7.611   8.651  1.00  0.00    +0.186 C 
ATOM     65  C   UNL     1     -14.461  -6.799   9.922  1.00  0.00    +0.177 C 
ATOM     66  C   UNL     1     -13.383  -6.706   7.647  1.00  0.00    +0.202 C 
ATOM     67  C   UNL     1     -13.182  -6.142  10.484  1.00  0.00    +0.178 C 
ATOM     68  C   UNL     1     -12.157  -6.045   8.321  1.00  0.00    +0.279 C 
ATOM     69  O   UNL     1     -12.551  -5.324   9.487  1.00  0.00    -0.342 OA
BRANCH  65  70
ATOM     70  O   UNL     1     -15.465  -5.810   9.643  1.00  0.00    -0.387 OA
ATOM     71  H   UNL     1     -14.994  -4.953   9.528  1.00  0.00    +0.211 HD
ENDBRANCH  65  70
BRANCH  66  72
ATOM     72  O   UNL     1     -14.307  -5.704   7.177  1.00  0.00    -0.385 OA
ATOM     73  H   UNL     1     -14.052  -4.855   7.588  1.00  0.00    +0.211 HD
ENDBRANCH  66  72
BRANCH  67  74
ATOM     74  C   UNL     1     -13.462  -5.271  11.722  1.00  0.00    +0.191 C 
BRANCH  74  75
ATOM     75  O   UNL     1     -12.436  -5.335  12.712  1.00  0.00    -0.394 OA
ATOM     76  H   UNL     1     -12.868  -5.607  13.549  1.00  0.00    +0.210 HD
ENDBRANCH  74  75
ENDBRANCH  67  74
BRANCH  68  77
ATOM     77  O   UNL     1     -11.102  -6.946   8.609  1.00  0.00    -0.366 OA
ATOM     78  H   UNL     1     -11.475  -7.844   8.689  1.00  0.00    +0.213 HD
ENDBRANCH  68  77
ENDBRANCH  63  64
ENDBRANCH  60  63
ENDBRANCH  52  53
ENDBRANCH   5  52
TORSDOF 27
ENDMDL
MODEL 2
REMARK VINA RESULT:    -8.907     15.800     23.970
REMARK INTER + INTRA:         -22.637
REMARK INTER:                 -20.690
REMARK INTRA:                  -1.948
REMARK UNBOUND:                -3.316
REMARK SMILES OC[C@@H]1O[C@H](O[C@H]2[C@@H]3OC[C@H]2O[C@@H](O[C@@H]2[C@H](O)[C@@H](O[C@@H]4[C@@H]5OC[C@H]4O[C@H](O[C@@H]4[C@@H](O)[C@H](O)O[C@@H](CO)[C@H]4O)[C@@H]5O)O[C@H](CO)[C@H]2O)[C@H]3O)[C@@H](O)[C@H](O[C@@H]2O[C@@H]3CO[C@H]([C@H]2O)[C@@H]3O)[C@H]1O
REMARK SMILES IDX 15 1 45 2 42 3 41 4 18 5 16 6 14 7 13 8 7 9 11 10 8 11 10 12
REMARK SMILES IDX 12 13 9 14 47 15 6 16 5 17 51 18 63 19 49 20 3 21 4 22 52 23
REMARK SMILES IDX 53 24 56 25 55 26 57 27 61 28 54 29 58 30 59 31 62 32 60 34
REMARK SMILES IDX 64 36 50 38 2 40 1 41 48 43 46 45 17 47 43 49 44 50 19 52
REMARK SMILES IDX 20 53 24 54 21 55 23 56 25 57 22 58 39 59 26 60 40 61 27 63
REMARK SMILES IDX 28 64 37 65 29 66 34 67 31 68 33 69 38 70 30 72 35 74 36 75
REMARK SMILES IDX 32 77
REMARK H PARENT 62 33 60 35 64 37 50 39 1 42 48 44 46 46 17 48 44 51 40 62
REMARK H PARENT 38 71 30 73 36 76 32 78
ROOT
ATOM      1  C   UNL     1     -13.390  -3.102 -19.045  1.00  0.00    +0.186 C 
ATOM      2  C   UNL     1     -12.851  -2.887 -17.616  1.00  0.00    +0.177 C 
ATOM      3  C   UNL     1     -13.974  -2.563 -16.607  1.00  0.00    +0.178 C 
ATOM      4  O   UNL     1     -15.142  -2.061 -17.259  1.00  0.00    -0.341 OA
ATOM      5  C   UNL     1     -15.751  -3.029 -18.116  1.00  0.00    +0.282 C 
ATOM      6  C   UNL     1     -14.726  -3.851 -18.946  1.00  0.00    +0.202 C 
ENDROOT
BRANCH   1   7
ATOM      7  O   UNL     1     -13.644  -1.904 -19.819  1.00  0.00    -0.341 OA
BRANCH   7   8
ATOM      8  C   UNL     1     -12.477  -1.111 -20.068  1.00  0.00    +0.282 C 
ATOM      9  C   UNL     1     -12.388   1.801 -19.741  1.00  0.00    +0.184 C 
ATOM     10  C   UNL     1     -12.794   0.832 -18.639  1.00  0.00    +0.179 C 
ATOM     11  C   UNL     1     -13.254   1.195 -20.842  1.00  0.00    +0.184 C 
ATOM     12  C   UNL     1     -14.312   0.796 -18.820  1.00  0.00    +0.195 C 
ATOM     13  O   UNL     1     -12.123  -0.430 -18.854  1.00  0.00    -0.341 OA
ATOM     14  O   UNL     1     -14.550   0.969 -20.236  1.00  0.00    -0.370 OA
ATOM     15  C   UNL     1     -12.680  -0.161 -21.281  1.00  0.00    +0.202 C 
BRANCH   9  16
ATOM     16  O   UNL     1     -11.010   1.772 -20.092  1.00  0.00    -0.341 OA
BRANCH  16  17
ATOM     17  C   UNL     1     -10.558   2.900 -20.865  1.00  0.00    +0.282 C 
ATOM     18  C   UNL     1      -9.112   5.002 -20.535  1.00  0.00    +0.186 C 
ATOM     19  C   UNL     1     -10.214   5.635 -21.397  1.00  0.00    +0.177 C 
ATOM     20  C   UNL     1      -9.506   3.618 -19.995  1.00  0.00    +0.202 C 
ATOM     21  C   UNL     1     -11.607   5.103 -21.062  1.00  0.00    +0.178 C 
ATOM     22  O   UNL     1     -11.691   3.684 -21.219  1.00  0.00    -0.341 OA
BRANCH  18  23
ATOM     23  O   UNL     1      -8.857   5.907 -19.436  1.00  0.00    -0.341 OA
BRANCH  23  24
ATOM     24  C   UNL     1      -7.591   6.576 -19.518  1.00  0.00    +0.282 C 
ATOM     25  C   UNL     1      -9.345   8.870 -18.923  1.00  0.00    +0.195 C 
ATOM     26  C   UNL     1      -7.889   8.762 -18.472  1.00  0.00    +0.178 C 
ATOM     27  O   UNL     1      -9.318   8.825 -20.370  1.00  0.00    -0.370 OA
ATOM     28  C   UNL     1      -7.187   9.466 -19.618  1.00  0.00    +0.177 C 
ATOM     29  O   UNL     1      -7.407   7.411 -18.360  1.00  0.00    -0.341 OA
ATOM     30  C   UNL     1      -7.928   8.777 -20.759  1.00  0.00    +0.183 C 
ATOM     31  C   UNL     1      -7.471   7.316 -20.880  1.00  0.00    +0.202 C 
BRANCH  28  32
ATOM     32  O   UNL     1      -5.781   9.264 -19.639  1.00  0.00    -0.387 OA
ATOM     33  H   UNL     1      -5.484   9.377 -20.562  1.00  0.00    +0.211 HD
ENDBRANCH  28  32
BRANCH  31  34
ATOM     34  O   UNL     1      -6.115   7.267 -21.361  1.00  0.00    -0.385 OA
ATOM     35  H   UNL     1      -6.104   7.753 -22.215  1.00  0.00    +0.211 HD
ENDBRANCH  31  34
ENDBRANCH  23  24
ENDBRANCH  18  23
BRANCH  19  36
ATOM     36  O   UNL     1      -9.920   5.319 -22.771  1.00  0.00    -0.387 OA
ATOM     37  H   UNL     1     -10.477   5.886 -23.335  1.00  0.00    +0.211 HD
ENDBRANCH  19  36
BRANCH  20  38
ATOM     38  O   UNL     1      -8.326   2.801 -19.860  1.00  0.00    -0.385 OA
ATOM     39  H   UNL     1      -8.608   1.882 -20.049  1.00  0.00    +0.211 HD
ENDBRANCH  20  38
BRANCH  21  40
ATOM     40  C   UNL     1     -12.147   5.510 -19.685  1.00  0.00    +0.191 C 
BRANCH  40  41
ATOM     41  O   UNL     1     -13.577   5.380 -19.679  1.00  0.00    -0.394 OA
ATOM     42  H   UNL     1     -13.763   4.588 -20.233  1.00  0.00    +0.210 HD
ENDBRANCH  40  41
ENDBRANCH  21  40
ENDBRANCH  16  17
ENDBRANCH   9  16
BRANCH  15  43
ATOM     43  O   UNL     1     -13.524  -0.761 -22.273  1.00  0.00    -0.385 OA
ATOM     44  H   UNL     1     -14.083  -1.390 -21.776  1.00  0.00    +0.211 HD
ENDBRANCH  15  43
ENDBRANCH   7   8
ENDBRANCH   1   7
BRANCH   2  45
ATOM     45  O   UNL     1     -12.171  -4.078 -17.185  1.00  0.00    -0.387 OA
ATOM     46  H   UNL     1     -11.598  -4.345 -17.933  1.00  0.00    +0.211 HD
ENDBRANCH   2  45
BRANCH   6  47
ATOM     47  O   UNL     1     -15.241  -4.105 -20.267  1.00  0.00    -0.385 OA
ATOM     48  H   UNL     1     -16.137  -4.472 -20.134  1.00  0.00    +0.211 HD
ENDBRANCH   6  47
BRANCH   3  49
ATOM     49  C   UNL     1     -13.504  -1.521 -15.582  1.00  0.00    +0.191 C 
BRANCH  49  50
ATOM     50  O   UNL     1     -12.387  -1.993 -14.834  1.00  0.00    -0.394 OA
ATOM     51  H   UNL     1     -12.745  -2.623 -14.167  1.00  0.00    +0.210 HD
ENDBRANCH  49  50
ENDBRANCH   3  49
BRANCH   5  52
ATOM     52  O   UNL     1     -16.560  -3.940 -17.362  1.00  0.00    -0.341 OA
BRANCH  52  53
ATOM     53  C   UNL     1     -15.802  -4.882 -16.599  1.00  0.00    +0.184 C 
ATOM     54  C   UNL     1     -16.552  -5.185 -15.313  1.00  0.00    +0.179 C 
ATOM     55  C   UNL     1     -15.827  -6.304 -17.172  1.00  0.00    +0.184 C 
ATOM     56  C   UNL     1     -17.717  -6.026 -15.842  1.00  0.00    +0.195 C 
ATOM     57  O   UNL     1     -15.694  -5.916 -14.408  1.00  0.00    -0.341 OA
ATOM     58  O   UNL     1     -17.170  -6.806 -16.935  1.00  0.00    -0.370 OA
ATOM     59  C   UNL     1     -14.852  -7.176 -16.371  1.00  0.00    +0.202 C 
ATOM     60  C   UNL     1     -15.294  -7.207 -14.885  1.00  0.00    +0.282 C 
BRANCH  59  61
ATOM     61  O   UNL     1     -13.517  -6.660 -16.504  1.00  0.00    -0.385 OA
ATOM     62  H   UNL     1     -13.225  -6.452 -15.594  1.00  0.00    +0.211 HD
ENDBRANCH  59  61
BRANCH  60  63
ATOM     63  O   UNL     1     -14.168  -7.632 -14.107  1.00  0.00    -0.341 OA
BRANCH  63  64
ATOM     64  C   UNL     1     -14.311  -7.416 -12.694  1.00  0.00    +0.186 C 
ATOM     65  C   UNL     1     -15.576  -8.176 -12.240  1.00  0.00    +0.177 C 
ATOM     66  C   UNL     1     -13.104  -7.885 -11.851  1.00  0.00    +0.202 C 
ATOM     67  C   UNL     1     -15.326  -9.699 -12.271  1.00  0.00    +0.178 C 
ATOM     68  C   UNL     1     -12.977  -9.426 -11.892  1.00  0.00    +0.279 C 
ATOM     69  O   UNL     1     -14.190 -10.043 -11.465  1.00  0.00    -0.342 OA
BRANCH  65  70
ATOM     70  O   UNL     1     -15.977  -7.749 -10.929  1.00  0.00    -0.387 OA
ATOM     71  H   UNL     1     -16.379  -6.856 -11.031  1.00  0.00    +0.211 HD
ENDBRANCH  65  70
BRANCH  66  72
ATOM     72  O   UNL     1     -13.304  -7.428 -10.497  1.00  0.00    -0.385 OA
ATOM     73  H   UNL     1     -14.050  -6.798 -10.509  1.00  0.00    +0.211 HD
ENDBRANCH  66  72
BRANCH  67  74
ATOM     74  C   UNL     1     -16.539 -10.505 -11.771  1.00  0.00    +0.191 C 
BRANCH  74  75
ATOM     75  O   UNL     1     -16.986 -11.499 -12.692  1.00  0.00    -0.394 OA
ATOM     76  H   UNL     1     -17.907 -11.264 -12.937  1.00  0.00    +0.210 HD
ENDBRANCH  74  75
ENDBRANCH  67  74
BRANCH  68  77
ATOM     77  O   UNL     1     -12.558  -9.936 -13.147  1.00  0.00    -0.366 OA
ATOM     78  H   UNL     1     -12.723 -10.897 -13.161  1.00  0.00    +0.213 HD
ENDBRANCH  68  77
ENDBRANCH  63  64
ENDBRANCH  60  63
ENDBRANCH  52  53
ENDBRANCH   5  52
TORSDOF 27
ENDMDL
MODEL 3
REMARK VINA RESULT:    -8.820     16.706     25.024
REMARK INTER + INTRA:         -22.449
REMARK INTER:                 -19.254
REMARK INTRA:                  -3.195
REMARK UNBOUND:                -3.316
REMARK SMILES OC[C@@H]1O[C@H](O[C@H]2[C@@H]3OC[C@H]2O[C@@H](O[C@@H]2[C@H](O)[C@@H](O[C@@H]4[C@@H]5OC[C@H]4O[C@H](O[C@@H]4[C@@H](O)[C@H](O)O[C@@H](CO)[C@H]4O)[C@@H]5O)O[C@H](CO)[C@H]2O)[C@H]3O)[C@@H](O)[C@H](O[C@@H]2O[C@@H]3CO[C@H]([C@H]2O)[C@@H]3O)[C@H]1O
REMARK SMILES IDX 15 1 45 2 42 3 41 4 18 5 16 6 14 7 13 8 7 9 11 10 8 11 10 12
REMARK SMILES IDX 12 13 9 14 47 15 6 16 5 17 51 18 63 19 49 20 3 21 4 22 52 23
REMARK SMILES IDX 53 24 56 25 55 26 57 27 61 28 54 29 58 30 59 31 62 32 60 34
REMARK SMILES IDX 64 36 50 38 2 40 1 41 48 43 46 45 17 47 43 49 44 50 19 52
REMARK SMILES IDX 20 53 24 54 21 55 23 56 25 57 22 58 39 59 26 60 40 61 27 63
REMARK SMILES IDX 28 64 37 65 29 66 34 67 31 68 33 69 38 70 30 72 35 74 36 75
REMARK SMILES IDX 32 77
REMARK H PARENT 62 33 60 35 64 37 50 39 1 42 48 44 46 46 17 48 44 51 40 62
REMARK H PARENT 38 71 30 73 36 76 32 78
ROOT
ATOM      1  C   UNL     1     -14.878  -0.888 -21.135  1.00  0.00    +0.186 C 
ATOM      2  C   UNL     1     -13.514  -1.559 -20.871  1.00  0.00    +0.177 C 
ATOM      3  C   UNL     1     -13.585  -2.613 -19.744  1.00  0.00    +0.178 C 
ATOM      4  O   UNL     1     -14.711  -2.398 -18.891  1.00  0.00    -0.341 OA
ATOM      5  C   UNL     1     -15.956  -2.571 -19.570  1.00  0.00    +0.282 C 
ATOM      6  C   UNL     1     -15.971  -1.956 -20.998  1.00  0.00    +0.202 C 
ENDROOT
BRANCH   1   7
ATOM      7  O   UNL     1     -15.241   0.193 -20.242  1.00  0.00    -0.341 OA
BRANCH   7   8
ATOM      8  C   UNL     1     -14.529   1.414 -20.481  1.00  0.00    +0.282 C 
ATOM      9  C   UNL     1     -13.012   2.843 -18.419  1.00  0.00    +0.184 C 
ATOM     10  C   UNL     1     -12.775   1.387 -18.796  1.00  0.00    +0.179 C 
ATOM     11  C   UNL     1     -14.533   2.755 -18.309  1.00  0.00    +0.184 C 
ATOM     12  C   UNL     1     -13.670   0.670 -17.784  1.00  0.00    +0.195 C 
ATOM     13  O   UNL     1     -13.141   1.195 -20.180  1.00  0.00    -0.341 OA
ATOM     14  O   UNL     1     -14.797   1.546 -17.555  1.00  0.00    -0.370 OA
ATOM     15  C   UNL     1     -15.157   2.603 -19.704  1.00  0.00    +0.202 C 
BRANCH   9  16
ATOM     16  O   UNL     1     -12.620   3.792 -19.403  1.00  0.00    -0.341 OA
BRANCH  16  17
ATOM     17  C   UNL     1     -11.228   3.743 -19.770  1.00  0.00    +0.282 C 
ATOM     18  C   UNL     1      -9.180   5.300 -19.753  1.00  0.00    +0.186 C 
ATOM     19  C   UNL     1      -8.927   4.631 -21.112  1.00  0.00    +0.177 C 
ATOM     20  C   UNL     1     -10.598   5.040 -19.220  1.00  0.00    +0.202 C 
ATOM     21  C   UNL     1     -10.214   4.390 -21.902  1.00  0.00    +0.178 C 
ATOM     22  O   UNL     1     -11.142   3.576 -21.180  1.00  0.00    -0.341 OA
BRANCH  18  23
ATOM     23  O   UNL     1      -8.971   6.720 -19.931  1.00  0.00    -0.341 OA
BRANCH  23  24
ATOM     24  C   UNL     1      -7.602   7.126 -19.804  1.00  0.00    +0.282 C 
ATOM     25  C   UNL     1      -8.951   9.639 -19.058  1.00  0.00    +0.195 C 
ATOM     26  C   UNL     1      -7.604   9.188 -18.497  1.00  0.00    +0.178 C 
ATOM     27  O   UNL     1      -8.766   9.761 -20.488  1.00  0.00    -0.370 OA
ATOM     28  C   UNL     1      -6.654   9.867 -19.465  1.00  0.00    +0.177 C 
ATOM     29  O   UNL     1      -7.400   7.763 -18.530  1.00  0.00    -0.341 OA
ATOM     30  C   UNL     1      -7.373   9.481 -20.753  1.00  0.00    +0.183 C 
ATOM     31  C   UNL     1      -7.188   7.983 -21.034  1.00  0.00    +0.202 C 
BRANCH  28  32
ATOM     32  O   UNL     1      -5.318   9.390 -19.387  1.00  0.00    -0.387 OA
ATOM     33  H   UNL     1      -4.772   9.955 -19.966  1.00  0.00    +0.211 HD
ENDBRANCH  28  32
BRANCH  31  34
ATOM     34  O   UNL     1      -5.819   7.719 -21.393  1.00  0.00    -0.385 OA
ATOM     35  H   UNL     1      -5.820   6.874 -21.894  1.00  0.00    +0.211 HD
ENDBRANCH  31  34
ENDBRANCH  23  24
ENDBRANCH  18  23
BRANCH  19  36
ATOM     36  O   UNL     1      -8.302   3.359 -20.856  1.00  0.00    -0.387 OA
ATOM     37  H   UNL     1      -7.395   3.393 -21.213  1.00  0.00    +0.211 HD
ENDBRANCH  19  36
BRANCH  20  38
ATOM     38  O   UNL     1     -10.573   5.013 -17.779  1.00  0.00    -0.385 OA
ATOM     39  H   UNL     1     -11.071   5.803 -17.484  1.00  0.00    +0.211 HD
ENDBRANCH  20  38
BRANCH  21  40
ATOM     40  C   UNL     1     -10.914   5.658 -22.410  1.00  0.00    +0.191 C 
BRANCH  40  41
ATOM     41  O   UNL     1      -9.929   6.577 -22.904  1.00  0.00    -0.394 OA
ATOM     42  H   UNL     1      -9.064   6.196 -22.630  1.00  0.00    +0.210 HD
ENDBRANCH  40  41
ENDBRANCH  21  40
ENDBRANCH  16  17
ENDBRANCH   9  16
BRANCH  15  43
ATOM     43  O   UNL     1     -16.580   2.461 -19.600  1.00  0.00    -0.385 OA
ATOM     44  H   UNL     1     -16.796   2.780 -18.701  1.00  0.00    +0.211 HD
ENDBRANCH  15  43
ENDBRANCH   7   8
ENDBRANCH   1   7
BRANCH   2  45
ATOM     45  O   UNL     1     -13.063  -2.200 -22.076  1.00  0.00    -0.387 OA
ATOM     46  H   UNL     1     -13.497  -3.078 -22.091  1.00  0.00    +0.211 HD
ENDBRANCH   2  45
BRANCH   6  47
ATOM     47  O   UNL     1     -17.259  -1.374 -21.276  1.00  0.00    -0.385 OA
ATOM     48  H   UNL     1     -17.591  -1.836 -22.070  1.00  0.00    +0.211 HD
ENDBRANCH   6  47
BRANCH   3  49
ATOM     49  C   UNL     1     -12.313  -2.582 -18.886  1.00  0.00    +0.191 C 
BRANCH  49  50
ATOM     50  O   UNL     1     -12.455  -3.379 -17.713  1.00  0.00    -0.394 OA
ATOM     51  H   UNL     1     -11.660  -3.204 -17.161  1.00  0.00    +0.210 HD
ENDBRANCH  49  50
ENDBRANCH   3  49
BRANCH   5  52
ATOM     52  O   UNL     1     -16.293  -3.960 -19.671  1.00  0.00    -0.341 OA
BRANCH  52  53
ATOM     53  C   UNL     1     -15.917  -4.725 -18.522  1.00  0.00    +0.184 C 
ATOM     54  C   UNL     1     -17.174  -5.265 -17.862  1.00  0.00    +0.179 C 
ATOM     55  C   UNL     1     -15.283  -6.079 -18.860  1.00  0.00    +0.184 C 
ATOM     56  C   UNL     1     -17.597  -6.339 -18.869  1.00  0.00    +0.195 C 
ATOM     57  O   UNL     1     -16.850  -5.807 -16.563  1.00  0.00    -0.341 OA
ATOM     58  O   UNL     1     -16.362  -6.906 -19.375  1.00  0.00    -0.370 OA
ATOM     59  C   UNL     1     -14.775  -6.724 -17.565  1.00  0.00    +0.202 C 
ATOM     60  C   UNL     1     -15.967  -6.936 -16.596  1.00  0.00    +0.282 C 
BRANCH  59  61
ATOM     61  O   UNL     1     -13.766  -5.890 -16.971  1.00  0.00    -0.385 OA
ATOM     62  H   UNL     1     -13.075  -6.503 -16.651  1.00  0.00    +0.211 HD
ENDBRANCH  59  61
BRANCH  60  63
ATOM     63  O   UNL     1     -15.429  -7.110 -15.279  1.00  0.00    -0.341 OA
BRANCH  63  64
ATOM     64  C   UNL     1     -15.605  -8.429 -14.738  1.00  0.00    +0.186 C 
ATOM     65  C   UNL     1     -14.275  -8.828 -14.062  1.00  0.00    +0.177 C 
ATOM     66  C   UNL     1     -16.755  -8.551 -13.713  1.00  0.00    +0.202 C 
ATOM     67  C   UNL     1     -14.067  -8.015 -12.767  1.00  0.00    +0.178 C 
ATOM     68  C   UNL     1     -16.423  -7.757 -12.427  1.00  0.00    +0.279 C 
ATOM     69  O   UNL     1     -15.180  -8.185 -11.877  1.00  0.00    -0.342 OA
BRANCH  65  70
ATOM     70  O   UNL     1     -14.251 -10.238 -13.792  1.00  0.00    -0.387 OA
ATOM     71  H   UNL     1     -15.167 -10.569 -13.930  1.00  0.00    +0.211 HD
ENDBRANCH  65  70
BRANCH  66  72
ATOM     72  O   UNL     1     -16.936  -9.950 -13.414  1.00  0.00    -0.385 OA
ATOM     73  H   UNL     1     -17.783 -10.227 -13.812  1.00  0.00    +0.211 HD
ENDBRANCH  66  72
BRANCH  67  74
ATOM     74  C   UNL     1     -12.781  -8.415 -12.021  1.00  0.00    +0.191 C 
BRANCH  74  75
ATOM     75  O   UNL     1     -11.894  -9.219 -12.797  1.00  0.00    -0.394 OA
ATOM     76  H   UNL     1     -11.464  -9.845 -12.176  1.00  0.00    +0.210 HD
ENDBRANCH  74  75
ENDBRANCH  67  74
BRANCH  68  77
ATOM     77  O   UNL     1     -16.452  -6.350 -12.596  1.00  0.00    -0.366 OA
ATOM     78  H   UNL     1     -17.193  -6.124 -13.189  1.00  0.00    +0.213 HD
ENDBRANCH  68  77
ENDBRANCH  63  64
ENDBRANCH  60  63
ENDBRANCH  52  53
ENDBRANCH   5  52
TORSDOF 27
ENDMDL
MODEL 4
REMARK VINA RESULT:    -8.659      4.964     11.090
REMARK INTER + INTRA:         -22.098
REMARK INTER:                 -18.717
REMARK INTRA:                  -3.381
REMARK UNBOUND:                -3.316
REMARK SMILES OC[C@@H]1O[C@H](O[C@H]2[C@@H]3OC[C@H]2O[C@@H](O[C@@H]2[C@H](O)[C@@H](O[C@@H]4[C@@H]5OC[C@H]4O[C@H](O[C@@H]4[C@@H](O)[C@H](O)O[C@@H](CO)[C@H]4O)[C@@H]5O)O[C@H](CO)[C@H]2O)[C@H]3O)[C@@H](O)[C@H](O[C@@H]2O[C@@H]3CO[C@H]([C@H]2O)[C@@H]3O)[C@H]1O
REMARK SMILES IDX 15 1 45 2 42 3 41 4 18 5 16 6 14 7 13 8 7 9 11 10 8 11 10 12
REMARK SMILES IDX 12 13 9 14 47 15 6 16 5 17 51 18 63 19 49 20 3 21 4 22 52 23
REMARK SMILES IDX 53 24 56 25 55 26 57 27 61 28 54 29 58 30 59 31 62 32 60 34
REMARK SMILES IDX 64 36 50 38 2 40 1 41 48 43 46 45 17 47 43 49 44 50 19 52
REMARK SMILES IDX 20 53 24 54 21 55 23 56 25 57 22 58 39 59 26 60 40 61 27 63
REMARK SMILES IDX 28 64 37 65 29 66 34 67 31 68 33 69 38 70 30 72 35 74 36 75
REMARK SMILES IDX 32 77
REMARK H PARENT 62 33 60 35 64 37 50 39 1 42 48 44 46 46 17 48 44 51 40 62
REMARK H PARENT 38 71 30 73 36 76 32 78
ROOT
ATOM      1  C   UNL     1      -8.710 -14.314   1.767  1.00  0.00    +0.186 C 
ATOM      2  C   UNL     1     -10.111 -13.778   1.404  1.00  0.00    +0.177 C 
ATOM      3  C   UNL     1     -10.259 -12.270   1.707  1.00  0.00    +0.178 C 
ATOM      4  O   UNL     1      -9.301 -11.828   2.669  1.00  0.00    -0.341 OA
ATOM      5  C   UNL     1      -7.957 -11.928   2.192  1.00  0.00    +0.282 C 
ATOM      6  C   UNL     1      -7.677 -13.239   1.406  1.00  0.00    +0.202 C 
ENDROOT
BRANCH   1   7
ATOM      7  O   UNL     1      -8.494 -14.644   3.160  1.00  0.00    -0.341 OA
BRANCH   7   8
ATOM      8  C   UNL     1      -7.334 -15.452   3.397  1.00  0.00    +0.282 C 
ATOM      9  C   UNL     1      -7.428 -18.354   3.804  1.00  0.00    +0.184 C 
ATOM     10  C   UNL     1      -7.994 -17.647   2.581  1.00  0.00    +0.179 C 
ATOM     11  C   UNL     1      -8.046 -17.428   4.849  1.00  0.00    +0.184 C 
ATOM     12  C   UNL     1      -9.448 -17.437   3.005  1.00  0.00    +0.195 C 
ATOM     13  O   UNL     1      -7.244 -16.433   2.352  1.00  0.00    -0.341 OA
ATOM     14  O   UNL     1      -9.423 -17.243   4.438  1.00  0.00    -0.370 OA
ATOM     15  C   UNL     1      -7.345 -16.061   4.827  1.00  0.00    +0.202 C 
BRANCH   9  16
ATOM     16  O   UNL     1      -6.009 -18.360   3.894  1.00  0.00    -0.341 OA
BRANCH  16  17
ATOM     17  C   UNL     1      -5.378 -19.565   3.421  1.00  0.00    +0.282 C 
ATOM     18  C   UNL     1      -4.792 -20.675   1.175  1.00  0.00    +0.186 C 
ATOM     19  C   UNL     1      -5.240 -21.938   1.926  1.00  0.00    +0.177 C 
ATOM     20  C   UNL     1      -5.195 -19.381   1.900  1.00  0.00    +0.202 C 
ATOM     21  C   UNL     1      -6.444 -21.689   2.836  1.00  0.00    +0.178 C 
ATOM     22  O   UNL     1      -6.181 -20.673   3.808  1.00  0.00    -0.341 OA
BRANCH  18  23
ATOM     23  O   UNL     1      -5.401 -20.719  -0.135  1.00  0.00    -0.341 OA
BRANCH  23  24
ATOM     24  C   UNL     1      -6.031 -19.491  -0.523  1.00  0.00    +0.282 C 
ATOM     25  C   UNL     1      -7.230 -21.325  -2.495  1.00  0.00    +0.195 C 
ATOM     26  C   UNL     1      -7.936 -20.096  -1.926  1.00  0.00    +0.178 C 
ATOM     27  O   UNL     1      -6.045 -20.830  -3.164  1.00  0.00    -0.370 OA
ATOM     28  C   UNL     1      -7.570 -19.055  -2.966  1.00  0.00    +0.177 C 
ATOM     29  O   UNL     1      -7.452 -19.686  -0.633  1.00  0.00    -0.341 OA
ATOM     30  C   UNL     1      -6.086 -19.389  -3.070  1.00  0.00    +0.183 C 
ATOM     31  C   UNL     1      -5.350 -18.928  -1.804  1.00  0.00    +0.202 C 
BRANCH  28  32
ATOM     32  O   UNL     1      -7.833 -17.719  -2.557  1.00  0.00    -0.387 OA
ATOM     33  H   UNL     1      -8.211 -17.759  -1.658  1.00  0.00    +0.211 HD
ENDBRANCH  28  32
BRANCH  31  34
ATOM     34  O   UNL     1      -5.307 -17.491  -1.760  1.00  0.00    -0.385 OA
ATOM     35  H   UNL     1      -4.661 -17.210  -2.445  1.00  0.00    +0.211 HD
ENDBRANCH  31  34
ENDBRANCH  23  24
ENDBRANCH  18  23
BRANCH  19  36
ATOM     36  O   UNL     1      -4.133 -22.372   2.739  1.00  0.00    -0.387 OA
ATOM     37  H   UNL     1      -4.236 -21.975   3.623  1.00  0.00    +0.211 HD
ENDBRANCH  19  36
BRANCH  20  38
ATOM     38  O   UNL     1      -4.218 -18.355   1.633  1.00  0.00    -0.385 OA
ATOM     39  H   UNL     1      -3.713 -18.659   0.850  1.00  0.00    +0.211 HD
ENDBRANCH  20  38
BRANCH  21  40
ATOM     40  C   UNL     1      -7.761 -21.389   2.108  1.00  0.00    +0.191 C 
BRANCH  40  41
ATOM     41  O   UNL     1      -7.856 -22.218   0.940  1.00  0.00    -0.394 OA
ATOM     42  H   UNL     1      -6.925 -22.426   0.698  1.00  0.00    +0.210 HD
ENDBRANCH  40  41
ENDBRANCH  21  40
ENDBRANCH  16  17
ENDBRANCH   9  16
BRANCH  15  43
ATOM     43  O   UNL     1      -7.961 -15.170   5.765  1.00  0.00    -0.385 OA
ATOM     44  H   UNL     1      -7.998 -14.309   5.302  1.00  0.00    +0.211 HD
ENDBRANCH  15  43
ENDBRANCH   7   8
ENDBRANCH   1   7
BRANCH   2  45
ATOM     45  O   UNL     1     -10.350 -13.994   0.003  1.00  0.00    -0.387 OA
ATOM     46  H   UNL     1      -9.589 -13.590  -0.464  1.00  0.00    +0.211 HD
ENDBRANCH   2  45
BRANCH   6  47
ATOM     47  O   UNL     1      -6.351 -13.721   1.695  1.00  0.00    -0.385 OA
ATOM     48  H   UNL     1      -5.774 -12.933   1.674  1.00  0.00    +0.211 HD
ENDBRANCH   6  47
BRANCH   3  49
ATOM     49  C   UNL     1     -11.663 -11.956   2.240  1.00  0.00    +0.191 C 
BRANCH  49  50
ATOM     50  O   UNL     1     -12.030 -10.604   1.980  1.00  0.00    -0.394 OA
ATOM     51  H   UNL     1     -11.195 -10.124   1.776  1.00  0.00    +0.210 HD
ENDBRANCH  49  50
ENDBRANCH   3  49
BRANCH   5  52
ATOM     52  O   UNL     1      -7.631 -10.815   1.351  1.00  0.00    -0.341 OA
BRANCH  52  53
ATOM     53  C   UNL     1      -7.652 -11.126  -0.044  1.00  0.00    +0.184 C 
ATOM     54  C   UNL     1      -8.125  -9.903  -0.810  1.00  0.00    +0.179 C 
ATOM     55  C   UNL     1      -6.259 -11.219  -0.678  1.00  0.00    +0.184 C 
ATOM     56  C   UNL     1      -6.907  -8.984  -0.680  1.00  0.00    +0.195 C 
ATOM     57  O   UNL     1      -8.413 -10.265  -2.180  1.00  0.00    -0.341 OA
ATOM     58  O   UNL     1      -5.752  -9.858  -0.728  1.00  0.00    -0.370 OA
ATOM     59  C   UNL     1      -6.405 -11.719  -2.121  1.00  0.00    +0.202 C 
ATOM     60  C   UNL     1      -7.275 -10.718  -2.924  1.00  0.00    +0.282 C 
BRANCH  59  61
ATOM     61  O   UNL     1      -6.990 -13.032  -2.123  1.00  0.00    -0.385 OA
ATOM     62  H   UNL     1      -6.568 -13.506  -2.867  1.00  0.00    +0.211 HD
ENDBRANCH  59  61
BRANCH  60  63
ATOM     63  O   UNL     1      -7.757 -11.400  -4.089  1.00  0.00    -0.341 OA
BRANCH  63  64
ATOM     64  C   UNL     1      -9.060 -10.979  -4.524  1.00  0.00    +0.186 C 
ATOM     65  C   UNL     1      -9.052 -10.989  -6.068  1.00  0.00    +0.177 C 
ATOM     66  C   UNL     1     -10.220 -11.863  -4.013  1.00  0.00    +0.202 C 
ATOM     67  C   UNL     1      -9.032 -12.440  -6.594  1.00  0.00    +0.178 C 
ATOM     68  C   UNL     1     -10.149 -13.273  -4.646  1.00  0.00    +0.279 C 
ATOM     69  O   UNL     1     -10.140 -13.186  -6.069  1.00  0.00    -0.342 OA
BRANCH  65  70
ATOM     70  O   UNL     1     -10.187 -10.274  -6.581  1.00  0.00    -0.387 OA
ATOM     71  H   UNL     1      -9.840  -9.450  -6.993  1.00  0.00    +0.211 HD
ENDBRANCH  65  70
BRANCH  66  72
ATOM     72  O   UNL     1     -11.459 -11.212  -4.360  1.00  0.00    -0.385 OA
ATOM     73  H   UNL     1     -11.475 -11.111  -5.331  1.00  0.00    +0.211 HD
ENDBRANCH  66  72
BRANCH  67  74
ATOM     74  C   UNL     1      -9.082 -12.509  -8.131  1.00  0.00    +0.191 C 
BRANCH  74  75
ATOM     75  O   UNL     1      -8.670 -11.304  -8.774  1.00  0.00    -0.394 OA
ATOM     76  H   UNL     1      -8.657 -11.487  -9.737  1.00  0.00    +0.210 HD
ENDBRANCH  74  75
ENDBRANCH  67  74
BRANCH  68  77
ATOM     77  O   UNL     1      -9.071 -14.062  -4.175  1.00  0.00    -0.366 OA
ATOM     78  H   UNL     1      -9.434 -14.876  -3.776  1.00  0.00    +0.213 HD
ENDBRANCH  68  77
ENDBRANCH  63  64
ENDBRANCH  60  63
ENDBRANCH  52  53
ENDBRANCH   5  52
TORSDOF 27
ENDMDL
MODEL 5
REMARK VINA RESULT:    -8.628     32.027     36.556
REMARK INTER + INTRA:         -22.031
REMARK INTER:                 -18.168
REMARK INTRA:                  -3.863
REMARK UNBOUND:                -3.316
REMARK SMILES OC[C@@H]1O[C@H](O[C@H]2[C@@H]3OC[C@H]2O[C@@H](O[C@@H]2[C@H](O)[C@@H](O[C@@H]4[C@@H]5OC[C@H]4O[C@H](O[C@@H]4[C@@H](O)[C@H](O)O[C@@H](CO)[C@H]4O)[C@@H]5O)O[C@H](CO)[C@H]2O)[C@H]3O)[C@@H](O)[C@H](O[C@@H]2O[C@@H]3CO[C@H]([C@H]2O)[C@@H]3O)[C@H]1O
REMARK SMILES IDX 15 1 45 2 42 3 41 4 18 5 16 6 14 7 13 8 7 9 11 10 8 11 10 12
REMARK SMILES IDX 12 13 9 14 47 15 6 16 5 17 51 18 63 19 49 20 3 21 4 22 52 23
REMARK SMILES IDX 53 24 56 25 55 26 57 27 61 28 54 29 58 30 59 31 62 32 60 34
REMARK SMILES IDX 64 36 50 38 2 40 1 41 48 43 46 45 17 47 43 49 44 50 19 52
REMARK SMILES IDX 20 53 24 54 21 55 23 56 25 57 22 58 39 59 26 60 40 61 27 63
REMARK SMILES IDX 28 64 37 65 29 66 34 67 31 68 33 69 38 70 30 72 35 74 36 75
REMARK SMILES IDX 32 77
REMARK H PARENT 62 33 60 35 64 37 50 39 1 42 48 44 46 46 17 48 44 51 40 62
REMARK H PARENT 38 71 30 73 36 76 32 78
ROOT
ATOM      1  C   UNL     1      12.652   5.200  24.338  1.00  0.00    +0.186 C 
ATOM      2  C   UNL     1      14.114   5.638  24.112  1.00  0.00    +0.177 C 
ATOM      3  C   UNL     1      14.286   7.172  24.183  1.00  0.00    +0.178 C 
ATOM      4  O   UNL     1      13.052   7.853  23.953  1.00  0.00    -0.341 OA
ATOM      5  C   UNL     1      12.082   7.592  24.970  1.00  0.00    +0.282 C 
ATOM      6  C   UNL     1      12.043   6.104  25.418  1.00  0.00    +0.202 C 
ENDROOT
BRANCH   1   7
ATOM      7  O   UNL     1      11.775   5.283  23.188  1.00  0.00    -0.341 OA
BRANCH   7   8
ATOM      8  C   UNL     1      12.448   5.146  21.929  1.00  0.00    +0.282 C 
ATOM      9  C   UNL     1      11.061   4.991  19.351  1.00  0.00    +0.184 C 
ATOM     10  C   UNL     1      10.891   6.134  20.342  1.00  0.00    +0.179 C 
ATOM     11  C   UNL     1      10.904   3.855  20.358  1.00  0.00    +0.184 C 
ATOM     12  C   UNL     1       9.677   5.658  21.140  1.00  0.00    +0.195 C 
ATOM     13  O   UNL     1      12.108   6.275  21.108  1.00  0.00    -0.341 OA
ATOM     14  O   UNL     1       9.762   4.214  21.174  1.00  0.00    -0.370 OA
ATOM     15  C   UNL     1      12.142   3.775  21.264  1.00  0.00    +0.202 C 
BRANCH   9  16
ATOM     16  O   UNL     1      12.325   4.937  18.704  1.00  0.00    -0.341 OA
BRANCH  16  17
ATOM     17  C   UNL     1      12.330   5.407  17.342  1.00  0.00    +0.282 C 
ATOM     18  C   UNL     1      13.528   7.190  15.927  1.00  0.00    +0.186 C 
ATOM     19  C   UNL     1      12.123   7.355  15.330  1.00  0.00    +0.177 C 
ATOM     20  C   UNL     1      13.527   6.375  17.229  1.00  0.00    +0.202 C 
ATOM     21  C   UNL     1      11.017   7.234  16.380  1.00  0.00    +0.178 C 
ATOM     22  O   UNL     1      11.058   5.978  17.061  1.00  0.00    -0.341 OA
BRANCH  18  23
ATOM     23  O   UNL     1      14.045   8.517  16.175  1.00  0.00    -0.341 OA
BRANCH  23  24
ATOM     24  C   UNL     1      15.396   8.706  15.736  1.00  0.00    +0.282 C 
ATOM     25  C   UNL     1      15.741   9.113  18.635  1.00  0.00    +0.195 C 
ATOM     26  C   UNL     1      16.808   8.517  17.719  1.00  0.00    +0.178 C 
ATOM     27  O   UNL     1      15.481  10.444  18.131  1.00  0.00    -0.370 OA
ATOM     28  C   UNL     1      17.589   9.763  17.349  1.00  0.00    +0.177 C 
ATOM     29  O   UNL     1      16.284   7.898  16.530  1.00  0.00    -0.341 OA
ATOM     30  C   UNL     1      16.396  10.660  17.034  1.00  0.00    +0.183 C 
ATOM     31  C   UNL     1      15.740  10.223  15.716  1.00  0.00    +0.202 C 
BRANCH  28  32
ATOM     32  O   UNL     1      18.477   9.580  16.255  1.00  0.00    -0.387 OA
ATOM     33  H   UNL     1      17.979   9.778  15.439  1.00  0.00    +0.211 HD
ENDBRANCH  28  32
BRANCH  31  34
ATOM     34  O   UNL     1      16.612  10.526  14.612  1.00  0.00    -0.385 OA
ATOM     35  H   UNL     1      16.078  10.413  13.795  1.00  0.00    +0.211 HD
ENDBRANCH  31  34
ENDBRANCH  23  24
ENDBRANCH  18  23
BRANCH  19  36
ATOM     36  O   UNL     1      11.944   6.311  14.355  1.00  0.00    -0.387 OA
ATOM     37  H   UNL     1      11.280   6.615  13.708  1.00  0.00    +0.211 HD
ENDBRANCH  19  36
BRANCH  20  38
ATOM     38  O   UNL     1      14.768   5.651  17.346  1.00  0.00    -0.385 OA
ATOM     39  H   UNL     1      15.357   6.209  17.896  1.00  0.00    +0.211 HD
ENDBRANCH  20  38
BRANCH  21  40
ATOM     40  C   UNL     1      10.957   8.381  17.399  1.00  0.00    +0.191 C 
BRANCH  40  41
ATOM     41  O   UNL     1       9.948   9.319  16.998  1.00  0.00    -0.394 OA
ATOM     42  H   UNL     1       9.603   9.697  17.839  1.00  0.00    +0.210 HD
ENDBRANCH  40  41
ENDBRANCH  21  40
ENDBRANCH  16  17
ENDBRANCH   9  16
BRANCH  15  43
ATOM     43  O   UNL     1      11.973   2.748  22.249  1.00  0.00    -0.385 OA
ATOM     44  H   UNL     1      12.822   2.729  22.736  1.00  0.00    +0.211 HD
ENDBRANCH  15  43
ENDBRANCH   7   8
ENDBRANCH   1   7
BRANCH   2  45
ATOM     45  O   UNL     1      14.947   5.032  25.113  1.00  0.00    -0.387 OA
ATOM     46  H   UNL     1      15.859   5.339  24.926  1.00  0.00    +0.211 HD
ENDBRANCH   2  45
BRANCH   6  47
ATOM     47  O   UNL     1      10.687   5.698  25.685  1.00  0.00    -0.385 OA
ATOM     48  H   UNL     1      10.530   4.917  25.121  1.00  0.00    +0.211 HD
ENDBRANCH   6  47
BRANCH   3  49
ATOM     49  C   UNL     1      15.309   7.655  23.146  1.00  0.00    +0.191 C 
BRANCH  49  50
ATOM     50  O   UNL     1      14.797   7.548  21.820  1.00  0.00    -0.394 OA
ATOM     51  H   UNL     1      14.445   8.437  21.586  1.00  0.00    +0.210 HD
ENDBRANCH  49  50
ENDBRANCH   3  49
BRANCH   5  52
ATOM     52  O   UNL     1      12.321   8.407  26.124  1.00  0.00    -0.341 OA
BRANCH  52  53
ATOM     53  C   UNL     1      11.360   9.452  26.295  1.00  0.00    +0.184 C 
ATOM     54  C   UNL     1      10.811   9.382  27.710  1.00  0.00    +0.179 C 
ATOM     55  C   UNL     1      11.978  10.851  26.401  1.00  0.00    +0.184 C 
ATOM     56  C   UNL     1      12.011   9.883  28.517  1.00  0.00    +0.195 C 
ATOM     57  O   UNL     1       9.655  10.242  27.828  1.00  0.00    -0.341 OA
ATOM     58  O   UNL     1      12.639  10.898  27.695  1.00  0.00    -0.370 OA
ATOM     59  C   UNL     1      10.850  11.890  26.412  1.00  0.00    +0.202 C 
ATOM     60  C   UNL     1       9.931  11.635  27.635  1.00  0.00    +0.282 C 
BRANCH  59  61
ATOM     61  O   UNL     1      10.109  11.816  25.183  1.00  0.00    -0.385 OA
ATOM     62  H   UNL     1       9.599  10.984  25.234  1.00  0.00    +0.211 HD
ENDBRANCH  59  61
BRANCH  60  63
ATOM     63  O   UNL     1       8.685  12.298  27.386  1.00  0.00    -0.341 OA
BRANCH  63  64
ATOM     64  C   UNL     1       7.909  12.560  28.566  1.00  0.00    +0.186 C 
ATOM     65  C   UNL     1       8.422  13.886  29.167  1.00  0.00    +0.177 C 
ATOM     66  C   UNL     1       6.387  12.667  28.318  1.00  0.00    +0.202 C 
ATOM     67  C   UNL     1       8.001  15.076  28.279  1.00  0.00    +0.178 C 
ATOM     68  C   UNL     1       6.060  13.924  27.476  1.00  0.00    +0.279 C 
ATOM     69  O   UNL     1       6.576  15.097  28.101  1.00  0.00    -0.342 OA
BRANCH  65  70
ATOM     70  O   UNL     1       7.938  14.051  30.509  1.00  0.00    -0.387 OA
ATOM     71  H   UNL     1       8.076  13.191  30.968  1.00  0.00    +0.211 HD
ENDBRANCH  65  70
BRANCH  66  72
ATOM     72  O   UNL     1       5.732  12.731  29.602  1.00  0.00    -0.385 OA
ATOM     73  H   UNL     1       5.269  11.882  29.737  1.00  0.00    +0.211 HD
ENDBRANCH  66  72
BRANCH  67  74
ATOM     74  C   UNL     1       8.438  16.431  28.863  1.00  0.00    +0.191 C 
BRANCH  74  75
ATOM     75  O   UNL     1       7.513  16.975  29.804  1.00  0.00    -0.394 OA
ATOM     76  H   UNL     1       7.461  16.339  30.549  1.00  0.00    +0.210 HD
ENDBRANCH  74  75
ENDBRANCH  67  74
BRANCH  68  77
ATOM     77  O   UNL     1       6.479  13.836  26.125  1.00  0.00    -0.366 OA
ATOM     78  H   UNL     1       6.553  14.740  25.765  1.00  0.00    +0.213 HD
ENDBRANCH  68  77
ENDBRANCH  63  64
ENDBRANCH  60  63
ENDBRANCH  52  53
ENDBRANCH   5  52
TORSDOF 27
ENDMDL
MODEL 6
REMARK VINA RESULT:    -8.563     16.398     24.558
REMARK INTER + INTRA:         -21.890
REMARK INTER:                 -18.436
REMARK INTRA:                  -3.454
REMARK UNBOUND:                -3.316
REMARK SMILES OC[C@@H]1O[C@H](O[C@H]2[C@@H]3OC[C@H]2O[C@@H](O[C@@H]2[C@H](O)[C@@H](O[C@@H]4[C@@H]5OC[C@H]4O[C@H](O[C@@H]4[C@@H](O)[C@H](O)O[C@@H](CO)[C@H]4O)[C@@H]5O)O[C@H](CO)[C@H]2O)[C@H]3O)[C@@H](O)[C@H](O[C@@H]2O[C@@H]3CO[C@H]([C@H]2O)[C@@H]3O)[C@H]1O
REMARK SMILES IDX 15 1 45 2 42 3 41 4 18 5 16 6 14 7 13 8 7 9 11 10 8 11 10 12
REMARK SMILES IDX 12 13 9 14 47 15 6 16 5 17 51 18 63 19 49 20 3 21 4 22 52 23
REMARK SMILES IDX 53 24 56 25 55 26 57 27 61 28 54 29 58 30 59 31 62 32 60 34
REMARK SMILES IDX 64 36 50 38 2 40 1 41 48 43 46 45 17 47 43 49 44 50 19 52
REMARK SMILES IDX 20 53 24 54 21 55 23 56 25 57 22 58 39 59 26 60 40 61 27 63
REMARK SMILES IDX 28 64 37 65 29 66 34 67 31 68 33 69 38 70 30 72 35 74 36 75
REMARK SMILES IDX 32 77
REMARK H PARENT 62 33 60 35 64 37 50 39 1 42 48 44 46 46 17 48 44 51 40 62
REMARK H PARENT 38 71 30 73 36 76 32 78
ROOT
ATOM      1  C   UNL     1     -15.964  -1.203 -20.612  1.00  0.00    +0.186 C 
ATOM      2  C   UNL     1     -14.820  -1.632 -21.554  1.00  0.00    +0.177 C 
ATOM      3  C   UNL     1     -13.983  -2.792 -20.972  1.00  0.00    +0.178 C 
ATOM      4  O   UNL     1     -14.119  -2.881 -19.553  1.00  0.00    -0.341 OA
ATOM      5  C   UNL     1     -15.449  -3.212 -19.148  1.00  0.00    +0.282 C 
ATOM      6  C   UNL     1     -16.545  -2.464 -19.958  1.00  0.00    +0.202 C 
ENDROOT
BRANCH   1   7
ATOM      7  O   UNL     1     -15.601  -0.308 -19.533  1.00  0.00    -0.341 OA
BRANCH   7   8
ATOM      8  C   UNL     1     -14.779   0.794 -19.939  1.00  0.00    +0.282 C 
ATOM      9  C   UNL     1     -12.883   2.152 -18.163  1.00  0.00    +0.184 C 
ATOM     10  C   UNL     1     -12.864   0.656 -18.446  1.00  0.00    +0.179 C 
ATOM     11  C   UNL     1     -14.381   2.264 -17.889  1.00  0.00    +0.184 C 
ATOM     12  C   UNL     1     -13.719   0.125 -17.295  1.00  0.00    +0.195 C 
ATOM     13  O   UNL     1     -13.403   0.422 -19.766  1.00  0.00    -0.341 OA
ATOM     14  O   UNL     1     -14.702   1.150 -17.020  1.00  0.00    -0.370 OA
ATOM     15  C   UNL     1     -15.171   2.102 -19.197  1.00  0.00    +0.202 C 
BRANCH   9  16
ATOM     16  O   UNL     1     -12.494   2.977 -19.253  1.00  0.00    -0.341 OA
BRANCH  16  17
ATOM     17  C   UNL     1     -11.074   3.034 -19.492  1.00  0.00    +0.282 C 
ATOM     18  C   UNL     1      -9.193   4.789 -19.490  1.00  0.00    +0.186 C 
ATOM     19  C   UNL     1      -8.748   4.002 -20.732  1.00  0.00    +0.177 C 
ATOM     20  C   UNL     1     -10.625   4.443 -19.052  1.00  0.00    +0.202 C 
ATOM     21  C   UNL     1      -9.925   3.541 -21.593  1.00  0.00    +0.178 C 
ATOM     22  O   UNL     1     -10.838   2.720 -20.859  1.00  0.00    -0.341 OA
BRANCH  18  23
ATOM     23  O   UNL     1      -9.103   6.194 -19.820  1.00  0.00    -0.341 OA
BRANCH  23  24
ATOM     24  C   UNL     1      -7.773   6.724 -19.741  1.00  0.00    +0.282 C 
ATOM     25  C   UNL     1      -9.323   9.112 -18.972  1.00  0.00    +0.195 C 
ATOM     26  C   UNL     1      -7.923   8.792 -18.451  1.00  0.00    +0.178 C 
ATOM     27  O   UNL     1      -9.194   9.234 -20.409  1.00  0.00    -0.370 OA
ATOM     28  C   UNL     1      -7.071   9.544 -19.455  1.00  0.00    +0.177 C 
ATOM     29  O   UNL     1      -7.591   7.392 -18.479  1.00  0.00    -0.341 OA
ATOM     30  C   UNL     1      -7.791   9.080 -20.716  1.00  0.00    +0.183 C 
ATOM     31  C   UNL     1      -7.478   7.602 -20.990  1.00  0.00    +0.202 C 
BRANCH  28  32
ATOM     32  O   UNL     1      -5.694   9.193 -19.415  1.00  0.00    -0.387 OA
ATOM     33  H   UNL     1      -5.489   8.921 -18.500  1.00  0.00    +0.211 HD
ENDBRANCH  28  32
BRANCH  31  34
ATOM     34  O   UNL     1      -6.103   7.460 -21.390  1.00  0.00    -0.385 OA
ATOM     35  H   UNL     1      -5.762   8.369 -21.543  1.00  0.00    +0.211 HD
ENDBRANCH  31  34
ENDBRANCH  23  24
ENDBRANCH  18  23
BRANCH  19  36
ATOM     36  O   UNL     1      -8.034   2.839 -20.272  1.00  0.00    -0.387 OA
ATOM     37  H   UNL     1      -7.205   3.141 -19.858  1.00  0.00    +0.211 HD
ENDBRANCH  19  36
BRANCH  20  38
ATOM     38  O   UNL     1     -10.736   4.580 -17.621  1.00  0.00    -0.385 OA
ATOM     39  H   UNL     1     -10.221   5.378 -17.383  1.00  0.00    +0.211 HD
ENDBRANCH  20  38
BRANCH  21  40
ATOM     40  C   UNL     1     -10.689   4.663 -22.308  1.00  0.00    +0.191 C 
BRANCH  40  41
ATOM     41  O   UNL     1     -11.341   4.128 -23.469  1.00  0.00    -0.394 OA
ATOM     42  H   UNL     1     -10.774   4.397 -24.227  1.00  0.00    +0.210 HD
ENDBRANCH  40  41
ENDBRANCH  21  40
ENDBRANCH  16  17
ENDBRANCH   9  16
BRANCH  15  43
ATOM     43  O   UNL     1     -16.580   2.148 -18.936  1.00  0.00    -0.385 OA
ATOM     44  H   UNL     1     -16.700   1.612 -18.127  1.00  0.00    +0.211 HD
ENDBRANCH  15  43
ENDBRANCH   7   8
ENDBRANCH   1   7
BRANCH   2  45
ATOM     45  O   UNL     1     -15.377  -2.049 -22.812  1.00  0.00    -0.387 OA
ATOM     46  H   UNL     1     -15.225  -1.306 -23.432  1.00  0.00    +0.211 HD
ENDBRANCH   2  45
BRANCH   6  47
ATOM     47  O   UNL     1     -17.644  -2.106 -19.099  1.00  0.00    -0.385 OA
ATOM     48  H   UNL     1     -17.971  -1.249 -19.434  1.00  0.00    +0.211 HD
ENDBRANCH   6  47
BRANCH   3  49
ATOM     49  C   UNL     1     -12.496  -2.615 -21.308  1.00  0.00    +0.191 C 
BRANCH  49  50
ATOM     50  O   UNL     1     -12.260  -1.390 -21.997  1.00  0.00    -0.394 OA
ATOM     51  H   UNL     1     -12.577  -0.672 -21.403  1.00  0.00    +0.210 HD
ENDBRANCH  49  50
ENDBRANCH   3  49
BRANCH   5  52
ATOM     52  O   UNL     1     -15.681  -4.621 -19.261  1.00  0.00    -0.341 OA
BRANCH  52  53
ATOM     53  C   UNL     1     -15.937  -5.262 -18.009  1.00  0.00    +0.184 C 
ATOM     54  C   UNL     1     -15.251  -6.617 -18.005  1.00  0.00    +0.179 C 
ATOM     55  C   UNL     1     -15.162  -4.655 -16.833  1.00  0.00    +0.184 C 
ATOM     56  C   UNL     1     -13.782  -6.204 -17.888  1.00  0.00    +0.195 C 
ATOM     57  O   UNL     1     -15.710  -7.394 -16.876  1.00  0.00    -0.341 OA
ATOM     58  O   UNL     1     -13.773  -5.033 -17.034  1.00  0.00    -0.370 OA
ATOM     59  C   UNL     1     -15.644  -5.310 -15.533  1.00  0.00    +0.202 C 
ATOM     60  C   UNL     1     -15.376  -6.836 -15.599  1.00  0.00    +0.282 C 
BRANCH  59  61
ATOM     61  O   UNL     1     -17.042  -5.038 -15.341  1.00  0.00    -0.385 OA
ATOM     62  H   UNL     1     -17.378  -5.771 -14.788  1.00  0.00    +0.211 HD
ENDBRANCH  59  61
BRANCH  60  63
ATOM     63  O   UNL     1     -16.207  -7.465 -14.615  1.00  0.00    -0.341 OA
BRANCH  63  64
ATOM     64  C   UNL     1     -15.739  -7.317 -13.265  1.00  0.00    +0.186 C 
ATOM     65  C   UNL     1     -16.820  -7.914 -12.338  1.00  0.00    +0.177 C 
ATOM     66  C   UNL     1     -14.385  -8.007 -12.980  1.00  0.00    +0.202 C 
ATOM     67  C   UNL     1     -16.846  -9.451 -12.464  1.00  0.00    +0.178 C 
ATOM     68  C   UNL     1     -14.530  -9.545 -13.066  1.00  0.00    +0.279 C 
ATOM     69  O   UNL     1     -15.551 -10.005 -12.185  1.00  0.00    -0.342 OA
BRANCH  65  70
ATOM     70  O   UNL     1     -16.592  -7.514 -10.977  1.00  0.00    -0.387 OA
ATOM     71  H   UNL     1     -16.177  -6.623 -11.009  1.00  0.00    +0.211 HD
ENDBRANCH  65  70
BRANCH  66  72
ATOM     72  O   UNL     1     -13.955  -7.610 -11.662  1.00  0.00    -0.385 OA
ATOM     73  H   UNL     1     -13.689  -8.419 -11.184  1.00  0.00    +0.211 HD
ENDBRANCH  66  72
BRANCH  67  74
ATOM     74  C   UNL     1     -17.869 -10.103 -11.516  1.00  0.00    +0.191 C 
BRANCH  74  75
ATOM     75  O   UNL     1     -18.735  -9.167 -10.876  1.00  0.00    -0.394 OA
ATOM     76  H   UNL     1     -18.166  -8.579 -10.336  1.00  0.00    +0.210 HD
ENDBRANCH  74  75
ENDBRANCH  67  74
BRANCH  68  77
ATOM     77  O   UNL     1     -14.731 -10.031 -14.382  1.00  0.00    -0.366 OA
ATOM     78  H   UNL     1     -14.602 -10.999 -14.378  1.00  0.00    +0.213 HD
ENDBRANCH  68  77
ENDBRANCH  63  64
ENDBRANCH  60  63
ENDBRANCH  52  53
ENDBRANCH   5  52
TORSDOF 27
ENDMDL
MODEL 7
REMARK VINA RESULT:    -8.556     22.433     27.642
REMARK INTER + INTRA:         -21.876
REMARK INTER:                 -18.987
REMARK INTRA:                  -2.888
REMARK UNBOUND:                -3.316
REMARK SMILES OC[C@@H]1O[C@H](O[C@H]2[C@@H]3OC[C@H]2O[C@@H](O[C@@H]2[C@H](O)[C@@H](O[C@@H]4[C@@H]5OC[C@H]4O[C@H](O[C@@H]4[C@@H](O)[C@H](O)O[C@@H](CO)[C@H]4O)[C@@H]5O)O[C@H](CO)[C@H]2O)[C@H]3O)[C@@H](O)[C@H](O[C@@H]2O[C@@H]3CO[C@H]([C@H]2O)[C@@H]3O)[C@H]1O
REMARK SMILES IDX 15 1 45 2 42 3 41 4 18 5 16 6 14 7 13 8 7 9 11 10 8 11 10 12
REMARK SMILES IDX 12 13 9 14 47 15 6 16 5 17 51 18 63 19 49 20 3 21 4 22 52 23
REMARK SMILES IDX 53 24 56 25 55 26 57 27 61 28 54 29 58 30 59 31 62 32 60 34
REMARK SMILES IDX 64 36 50 38 2 40 1 41 48 43 46 45 17 47 43 49 44 50 19 52
REMARK SMILES IDX 20 53 24 54 21 55 23 56 25 57 22 58 39 59 26 60 40 61 27 63
REMARK SMILES IDX 28 64 37 65 29 66 34 67 31 68 33 69 38 70 30 72 35 74 36 75
REMARK SMILES IDX 32 77
REMARK H PARENT 62 33 60 35 64 37 50 39 1 42 48 44 46 46 17 48 44 51 40 62
REMARK H PARENT 38 71 30 73 36 76 32 78
ROOT
ATOM      1  C   UNL     1       0.657  10.123 -10.053  1.00  0.00    +0.186 C 
ATOM      2  C   UNL     1       1.826  10.592  -9.162  1.00  0.00    +0.177 C 
ATOM      3  C   UNL     1       1.388  10.841  -7.702  1.00  0.00    +0.178 C 
ATOM      4  O   UNL     1      -0.019  11.061  -7.602  1.00  0.00    -0.341 OA
ATOM      5  C   UNL     1      -0.782   9.911  -7.973  1.00  0.00    +0.282 C 
ATOM      6  C   UNL     1      -0.226   9.179  -9.227  1.00  0.00    +0.202 C 
ENDROOT
BRANCH   1   7
ATOM      7  O   UNL     1      -0.213  11.162 -10.564  1.00  0.00    -0.341 OA
BRANCH   7   8
ATOM      8  C   UNL     1      -0.333  11.174 -11.992  1.00  0.00    +0.282 C 
ATOM      9  C   UNL     1       0.532  13.410 -13.680  1.00  0.00    +0.184 C 
ATOM     10  C   UNL     1       1.441  12.681 -12.699  1.00  0.00    +0.179 C 
ATOM     11  C   UNL     1      -0.646  13.600 -12.726  1.00  0.00    +0.184 C 
ATOM     12  C   UNL     1       1.288  13.550 -11.450  1.00  0.00    +0.195 C 
ATOM     13  O   UNL     1       0.979  11.319 -12.557  1.00  0.00    -0.341 OA
ATOM     14  O   UNL     1      -0.066  14.058 -11.480  1.00  0.00    -0.370 OA
ATOM     15  C   UNL     1      -1.342  12.254 -12.471  1.00  0.00    +0.202 C 
BRANCH   9  16
ATOM     16  O   UNL     1       0.153  12.658 -14.825  1.00  0.00    -0.341 OA
BRANCH  16  17
ATOM     17  C   UNL     1       1.215  11.891 -15.423  1.00  0.00    +0.282 C 
ATOM     18  C   UNL     1       2.531  11.826 -17.634  1.00  0.00    +0.186 C 
ATOM     19  C   UNL     1       2.383  10.311 -17.430  1.00  0.00    +0.177 C 
ATOM     20  C   UNL     1       1.605  12.640 -16.715  1.00  0.00    +0.202 C 
ATOM     21  C   UNL     1       1.018   9.920 -16.862  1.00  0.00    +0.178 C 
ATOM     22  O   UNL     1       0.755  10.558 -15.609  1.00  0.00    -0.341 OA
BRANCH  18  23
ATOM     23  O   UNL     1       2.220  12.103 -19.018  1.00  0.00    -0.341 OA
BRANCH  23  24
ATOM     24  C   UNL     1       3.054  13.108 -19.610  1.00  0.00    +0.282 C 
ATOM     25  C   UNL     1       0.765  13.184 -21.467  1.00  0.00    +0.195 C 
ATOM     26  C   UNL     1       1.630  14.394 -21.121  1.00  0.00    +0.178 C 
ATOM     27  O   UNL     1       1.657  12.214 -22.063  1.00  0.00    -0.370 OA
ATOM     28  C   UNL     1       2.660  14.331 -22.233  1.00  0.00    +0.177 C 
ATOM     29  O   UNL     1       2.286  14.302 -19.842  1.00  0.00    -0.341 OA
ATOM     30  C   UNL     1       2.957  12.838 -22.144  1.00  0.00    +0.183 C 
ATOM     31  C   UNL     1       3.761  12.534 -20.871  1.00  0.00    +0.202 C 
BRANCH  28  32
ATOM     32  O   UNL     1       3.794  15.158 -22.012  1.00  0.00    -0.387 OA
ATOM     33  H   UNL     1       3.473  16.077 -21.929  1.00  0.00    +0.211 HD
ENDBRANCH  28  32
BRANCH  31  34
ATOM     34  O   UNL     1       5.090  13.073 -20.992  1.00  0.00    -0.385 OA
ATOM     35  H   UNL     1       5.547  12.538 -21.677  1.00  0.00    +0.211 HD
ENDBRANCH  31  34
ENDBRANCH  23  24
ENDBRANCH  18  23
BRANCH  19  36
ATOM     36  O   UNL     1       3.401   9.900 -16.497  1.00  0.00    -0.387 OA
ATOM     37  H   UNL     1       2.959   9.614 -15.677  1.00  0.00    +0.211 HD
ENDBRANCH  19  36
BRANCH  20  38
ATOM     38  O   UNL     1       2.231  13.899 -16.394  1.00  0.00    -0.385 OA
ATOM     39  H   UNL     1       2.128  14.015 -15.427  1.00  0.00    +0.211 HD
ENDBRANCH  20  38
BRANCH  21  40
ATOM     40  C   UNL     1      -0.168  10.129 -17.814  1.00  0.00    +0.191 C 
BRANCH  40  41
ATOM     41  O   UNL     1       0.260   9.892 -19.163  1.00  0.00    -0.394 OA
ATOM     42  H   UNL     1       1.216   9.665 -19.092  1.00  0.00    +0.210 HD
ENDBRANCH  40  41
ENDBRANCH  21  40
ENDBRANCH  16  17
ENDBRANCH   9  16
BRANCH  15  43
ATOM     43  O   UNL     1      -2.412  12.418 -11.531  1.00  0.00    -0.385 OA
ATOM     44  H   UNL     1      -2.024  12.170 -10.668  1.00  0.00    +0.211 HD
ENDBRANCH  15  43
ENDBRANCH   7   8
ENDBRANCH   1   7
BRANCH   2  45
ATOM     45  O   UNL     1       2.857   9.590  -9.172  1.00  0.00    -0.387 OA
ATOM     46  H   UNL     1       2.637   8.972  -8.444  1.00  0.00    +0.211 HD
ENDBRANCH   2  45
BRANCH   6  47
ATOM     47  O   UNL     1      -1.309   8.689 -10.040  1.00  0.00    -0.385 OA
ATOM     48  H   UNL     1      -1.956   8.306  -9.415  1.00  0.00    +0.211 HD
ENDBRANCH   6  47
BRANCH   3  49
ATOM     49  C   UNL     1       2.113  12.060  -7.115  1.00  0.00    +0.191 C 
BRANCH  49  50
ATOM     50  O   UNL     1       3.518  11.837  -7.023  1.00  0.00    -0.394 OA
ATOM     51  H   UNL     1       3.666  11.338  -6.187  1.00  0.00    +0.210 HD
ENDBRANCH  49  50
ENDBRANCH   3  49
BRANCH   5  52
ATOM     52  O   UNL     1      -0.849   8.973  -6.892  1.00  0.00    -0.341 OA
BRANCH  52  53
ATOM     53  C   UNL     1      -2.140   8.379  -6.728  1.00  0.00    +0.184 C 
ATOM     54  C   UNL     1      -2.065   6.923  -7.154  1.00  0.00    +0.179 C 
ATOM     55  C   UNL     1      -2.524   8.129  -5.265  1.00  0.00    +0.184 C 
ATOM     56  C   UNL     1      -1.258   6.319  -6.001  1.00  0.00    +0.195 C 
ATOM     57  O   UNL     1      -3.398   6.374  -7.256  1.00  0.00    -0.341 OA
ATOM     58  O   UNL     1      -1.681   7.035  -4.813  1.00  0.00    -0.370 OA
ATOM     59  C   UNL     1      -3.981   7.651  -5.212  1.00  0.00    +0.202 C 
ATOM     60  C   UNL     1      -4.118   6.333  -6.018  1.00  0.00    +0.282 C 
BRANCH  59  61
ATOM     61  O   UNL     1      -4.846   8.672  -5.738  1.00  0.00    -0.385 OA
ATOM     62  H   UNL     1      -5.619   8.198  -6.103  1.00  0.00    +0.211 HD
ENDBRANCH  59  61
BRANCH  60  63
ATOM     63  O   UNL     1      -5.506   6.155  -6.324  1.00  0.00    -0.341 OA
BRANCH  63  64
ATOM     64  C   UNL     1      -5.832   4.863  -6.861  1.00  0.00    +0.186 C 
ATOM     65  C   UNL     1      -5.160   3.809  -5.955  1.00  0.00    +0.177 C 
ATOM     66  C   UNL     1      -7.347   4.571  -6.947  1.00  0.00    +0.202 C 
ATOM     67  C   UNL     1      -5.876   3.739  -4.591  1.00  0.00    +0.178 C 
ATOM     68  C   UNL     1      -7.960   4.454  -5.530  1.00  0.00    +0.279 C 
ATOM     69  O   UNL     1      -7.275   3.466  -4.765  1.00  0.00    -0.342 OA
BRANCH  65  70
ATOM     70  O   UNL     1      -5.154   2.524  -6.598  1.00  0.00    -0.387 OA
ATOM     71  H   UNL     1      -6.074   2.179  -6.551  1.00  0.00    +0.211 HD
ENDBRANCH  65  70
BRANCH  66  72
ATOM     72  O   UNL     1      -7.520   3.339  -7.678  1.00  0.00    -0.385 OA
ATOM     73  H   UNL     1      -7.994   2.717  -7.094  1.00  0.00    +0.211 HD
ENDBRANCH  66  72
BRANCH  67  74
ATOM     74  C   UNL     1      -5.281   2.660  -3.667  1.00  0.00    +0.191 C 
BRANCH  74  75
ATOM     75  O   UNL     1      -3.942   2.297  -3.998  1.00  0.00    -0.394 OA
ATOM     76  H   UNL     1      -3.951   2.004  -4.934  1.00  0.00    +0.210 HD
ENDBRANCH  74  75
ENDBRANCH  67  74
BRANCH  68  77
ATOM     77  O   UNL     1      -8.031   5.685  -4.831  1.00  0.00    -0.366 OA
ATOM     78  H   UNL     1      -7.684   5.550  -3.929  1.00  0.00    +0.213 HD
ENDBRANCH  68  77
ENDBRANCH  63  64
ENDBRANCH  60  63
ENDBRANCH  52  53
ENDBRANCH   5  52
TORSDOF 27
ENDMDL
MODEL 8
REMARK VINA RESULT:    -8.413     15.953     24.210
REMARK INTER + INTRA:         -21.565
REMARK INTER:                 -17.915
REMARK INTRA:                  -3.649
REMARK UNBOUND:                -3.316
REMARK SMILES OC[C@@H]1O[C@H](O[C@H]2[C@@H]3OC[C@H]2O[C@@H](O[C@@H]2[C@H](O)[C@@H](O[C@@H]4[C@@H]5OC[C@H]4O[C@H](O[C@@H]4[C@@H](O)[C@H](O)O[C@@H](CO)[C@H]4O)[C@@H]5O)O[C@H](CO)[C@H]2O)[C@H]3O)[C@@H](O)[C@H](O[C@@H]2O[C@@H]3CO[C@H]([C@H]2O)[C@@H]3O)[C@H]1O
REMARK SMILES IDX 15 1 45 2 42 3 41 4 18 5 16 6 14 7 13 8 7 9 11 10 8 11 10 12
REMARK SMILES IDX 12 13 9 14 47 15 6 16 5 17 51 18 63 19 49 20 3 21 4 22 52 23
REMARK SMILES IDX 53 24 56 25 55 26 57 27 61 28 54 29 58 30 59 31 62 32 60 34
REMARK SMILES IDX 64 36 50 38 2 40 1 41 48 43 46 45 17 47 43 49 44 50 19 52
REMARK SMILES IDX 20 53 24 54 21 55 23 56 25 57 22 58 39 59 26 60 40 61 27 63
REMARK SMILES IDX 28 64 37 65 29 66 34 67 31 68 33 69 38 70 30 72 35 74 36 75
REMARK SMILES IDX 32 77
REMARK H PARENT 62 33 60 35 64 37 50 39 1 42 48 44 46 46 17 48 44 51 40 62
REMARK H PARENT 38 71 30 73 36 76 32 78
ROOT
ATOM      1  C   UNL     1     -14.258  -3.139 -18.627  1.00  0.00    +0.186 C 
ATOM      2  C   UNL     1     -14.872  -2.224 -17.548  1.00  0.00    +0.177 C 
ATOM      3  C   UNL     1     -16.400  -2.415 -17.416  1.00  0.00    +0.178 C 
ATOM      4  O   UNL     1     -16.963  -2.992 -18.594  1.00  0.00    -0.341 OA
ATOM      5  C   UNL     1     -16.495  -4.321 -18.833  1.00  0.00    +0.282 C 
ATOM      6  C   UNL     1     -14.973  -4.495 -18.569  1.00  0.00    +0.202 C 
ENDROOT
BRANCH   1   7
ATOM      7  O   UNL     1     -14.364  -2.674 -19.995  1.00  0.00    -0.341 OA
BRANCH   7   8
ATOM      8  C   UNL     1     -13.411  -1.661 -20.343  1.00  0.00    +0.282 C 
ATOM      9  C   UNL     1     -14.145   0.955 -21.445  1.00  0.00    +0.184 C 
ATOM     10  C   UNL     1     -14.674   0.407 -20.126  1.00  0.00    +0.179 C 
ATOM     11  C   UNL     1     -14.389  -0.305 -22.273  1.00  0.00    +0.184 C 
ATOM     12  C   UNL     1     -15.971  -0.263 -20.581  1.00  0.00    +0.195 C 
ATOM     13  O   UNL     1     -13.689  -0.488 -19.563  1.00  0.00    -0.341 OA
ATOM     14  O   UNL     1     -15.721  -0.750 -21.920  1.00  0.00    -0.370 OA
ATOM     15  C   UNL     1     -13.389  -1.401 -21.875  1.00  0.00    +0.202 C 
BRANCH   9  16
ATOM     16  O   UNL     1     -12.770   1.313 -21.441  1.00  0.00    -0.341 OA
BRANCH  16  17
ATOM     17  C   UNL     1     -12.402   2.314 -22.409  1.00  0.00    +0.282 C 
ATOM     18  C   UNL     1     -11.075   4.518 -22.486  1.00  0.00    +0.186 C 
ATOM     19  C   UNL     1     -12.231   4.932 -23.409  1.00  0.00    +0.177 C 
ATOM     20  C   UNL     1     -11.375   3.228 -21.706  1.00  0.00    +0.202 C 
ATOM     21  C   UNL     1     -13.583   4.390 -22.945  1.00  0.00    +0.178 C 
ATOM     22  O   UNL     1     -13.586   2.963 -22.855  1.00  0.00    -0.341 OA
BRANCH  18  23
ATOM     23  O   UNL     1     -10.850   5.610 -21.566  1.00  0.00    -0.341 OA
BRANCH  23  24
ATOM     24  C   UNL     1      -9.501   6.094 -21.559  1.00  0.00    +0.282 C 
ATOM     25  C   UNL     1      -9.720   5.150 -18.774  1.00  0.00    +0.195 C 
ATOM     26  C   UNL     1      -8.427   5.135 -19.586  1.00  0.00    +0.178 C 
ATOM     27  O   UNL     1     -10.128   6.537 -18.700  1.00  0.00    -0.370 OA
ATOM     28  C   UNL     1      -7.833   6.474 -19.192  1.00  0.00    +0.177 C 
ATOM     29  O   UNL     1      -8.627   5.090 -21.011  1.00  0.00    -0.341 OA
ATOM     30  C   UNL     1      -9.098   7.310 -19.354  1.00  0.00    +0.183 C 
ATOM     31  C   UNL     1      -9.437   7.473 -20.843  1.00  0.00    +0.202 C 
BRANCH  28  32
ATOM     32  O   UNL     1      -6.757   6.890 -20.023  1.00  0.00    -0.387 OA
ATOM     33  H   UNL     1      -5.989   6.327 -19.810  1.00  0.00    +0.211 HD
ENDBRANCH  28  32
BRANCH  31  34
ATOM     34  O   UNL     1      -8.462   8.323 -21.475  1.00  0.00    -0.385 OA
ATOM     35  H   UNL     1      -8.127   7.830 -22.256  1.00  0.00    +0.211 HD
ENDBRANCH  31  34
ENDBRANCH  23  24
ENDBRANCH  18  23
BRANCH  19  36
ATOM     36  O   UNL     1     -11.949   4.401 -24.718  1.00  0.00    -0.387 OA
ATOM     37  H   UNL     1     -11.616   3.492 -24.607  1.00  0.00    +0.211 HD
ENDBRANCH  19  36
BRANCH  20  38
ATOM     38  O   UNL     1     -10.146   2.511 -21.471  1.00  0.00    -0.385 OA
ATOM     39  H   UNL     1      -9.670   3.009 -20.775  1.00  0.00    +0.211 HD
ENDBRANCH  20  38
BRANCH  21  40
ATOM     40  C   UNL     1     -14.117   4.998 -21.640  1.00  0.00    +0.191 C 
BRANCH  40  41
ATOM     41  O   UNL     1     -13.832   6.404 -21.622  1.00  0.00    -0.394 OA
ATOM     42  H   UNL     1     -14.240   6.737 -20.790  1.00  0.00    +0.210 HD
ENDBRANCH  40  41
ENDBRANCH  21  40
ENDBRANCH  16  17
ENDBRANCH   9  16
BRANCH  15  43
ATOM     43  O   UNL     1     -13.652  -2.604 -22.609  1.00  0.00    -0.385 OA
ATOM     44  H   UNL     1     -13.654  -2.327 -23.547  1.00  0.00    +0.211 HD
ENDBRANCH  15  43
ENDBRANCH   7   8
ENDBRANCH   1   7
BRANCH   2  45
ATOM     45  O   UNL     1     -14.259  -2.513 -16.280  1.00  0.00    -0.387 OA
ATOM     46  H   UNL     1     -14.114  -3.482 -16.267  1.00  0.00    +0.211 HD
ENDBRANCH   2  45
BRANCH   6  47
ATOM     47  O   UNL     1     -14.397  -5.391 -19.539  1.00  0.00    -0.385 OA
ATOM     48  H   UNL     1     -13.802  -5.978 -19.035  1.00  0.00    +0.211 HD
ENDBRANCH   6  47
BRANCH   3  49
ATOM     49  C   UNL     1     -17.096  -1.073 -17.151  1.00  0.00    +0.191 C 
BRANCH  49  50
ATOM     50  O   UNL     1     -16.151  -0.035 -16.905  1.00  0.00    -0.394 OA
ATOM     51  H   UNL     1     -15.276  -0.383 -17.189  1.00  0.00    +0.210 HD
ENDBRANCH  49  50
ENDBRANCH   3  49
BRANCH   5  52
ATOM     52  O   UNL     1     -17.207  -5.265 -18.025  1.00  0.00    -0.341 OA
BRANCH  52  53
ATOM     53  C   UNL     1     -16.379  -5.953 -17.083  1.00  0.00    +0.184 C 
ATOM     54  C   UNL     1     -16.964  -5.768 -15.693  1.00  0.00    +0.179 C 
ATOM     55  C   UNL     1     -16.510  -7.479 -17.142  1.00  0.00    +0.184 C 
ATOM     56  C   UNL     1     -18.207  -6.659 -15.775  1.00  0.00    +0.195 C 
ATOM     57  O   UNL     1     -16.015  -6.216 -14.700  1.00  0.00    -0.341 OA
ATOM     58  O   UNL     1     -17.823  -7.788 -16.601  1.00  0.00    -0.370 OA
ATOM     59  C   UNL     1     -15.461  -8.101 -16.213  1.00  0.00    +0.202 C 
ATOM     60  C   UNL     1     -15.709  -7.614 -14.761  1.00  0.00    +0.282 C 
BRANCH  59  61
ATOM     61  O   UNL     1     -14.143  -7.744 -16.661  1.00  0.00    -0.385 OA
ATOM     62  H   UNL     1     -13.663  -8.589 -16.764  1.00  0.00    +0.211 HD
ENDBRANCH  59  61
BRANCH  60  63
ATOM     63  O   UNL     1     -14.503  -7.833 -14.019  1.00  0.00    -0.341 OA
BRANCH  63  64
ATOM     64  C   UNL     1     -14.619  -7.567 -12.612  1.00  0.00    +0.186 C 
ATOM     65  C   UNL     1     -15.842  -8.356 -12.097  1.00  0.00    +0.177 C 
ATOM     66  C   UNL     1     -13.374  -7.959 -11.784  1.00  0.00    +0.202 C 
ATOM     67  C   UNL     1     -15.536  -9.868 -12.078  1.00  0.00    +0.178 C 
ATOM     68  C   UNL     1     -13.191  -9.496 -11.771  1.00  0.00    +0.279 C 
ATOM     69  O   UNL     1     -14.368 -10.139 -11.289  1.00  0.00    -0.342 OA
BRANCH  65  70
ATOM     70  O   UNL     1     -16.226  -7.893 -10.792  1.00  0.00    -0.387 OA
ATOM     71  H   UNL     1     -16.725  -7.055 -10.924  1.00  0.00    +0.211 HD
ENDBRANCH  65  70
BRANCH  66  72
ATOM     72  O   UNL     1     -13.557  -7.458 -10.444  1.00  0.00    -0.385 OA
ATOM     73  H   UNL     1     -14.429  -7.768 -10.133  1.00  0.00    +0.211 HD
ENDBRANCH  66  72
BRANCH  67  74
ATOM     74  C   UNL     1     -16.705 -10.698 -11.516  1.00  0.00    +0.191 C 
BRANCH  74  75
ATOM     75  O   UNL     1     -17.903  -9.946 -11.324  1.00  0.00    -0.394 OA
ATOM     76  H   UNL     1     -17.860  -9.186 -11.942  1.00  0.00    +0.210 HD
ENDBRANCH  74  75
ENDBRANCH  67  74
BRANCH  68  77
ATOM     77  O   UNL     1     -12.784 -10.037 -13.016  1.00  0.00    -0.366 OA
ATOM     78  H   UNL     1     -11.825  -9.886 -13.121  1.00  0.00    +0.213 HD
ENDBRANCH  68  77
ENDBRANCH  63  64
ENDBRANCH  60  63
ENDBRANCH  52  53
ENDBRANCH   5  52
TORSDOF 27
ENDMDL
MODEL 9
REMARK VINA RESULT:    -8.292     16.135     24.363
REMARK INTER + INTRA:         -21.303
REMARK INTER:                 -17.902
REMARK INTRA:                  -3.401
REMARK UNBOUND:                -3.316
REMARK SMILES OC[C@@H]1O[C@H](O[C@H]2[C@@H]3OC[C@H]2O[C@@H](O[C@@H]2[C@H](O)[C@@H](O[C@@H]4[C@@H]5OC[C@H]4O[C@H](O[C@@H]4[C@@H](O)[C@H](O)O[C@@H](CO)[C@H]4O)[C@@H]5O)O[C@H](CO)[C@H]2O)[C@H]3O)[C@@H](O)[C@H](O[C@@H]2O[C@@H]3CO[C@H]([C@H]2O)[C@@H]3O)[C@H]1O
REMARK SMILES IDX 15 1 45 2 42 3 41 4 18 5 16 6 14 7 13 8 7 9 11 10 8 11 10 12
REMARK SMILES IDX 12 13 9 14 47 15 6 16 5 17 51 18 63 19 49 20 3 21 4 22 52 23
REMARK SMILES IDX 53 24 56 25 55 26 57 27 61 28 54 29 58 30 59 31 62 32 60 34
REMARK SMILES IDX 64 36 50 38 2 40 1 41 48 43 46 45 17 47 43 49 44 50 19 52
REMARK SMILES IDX 20 53 24 54 21 55 23 56 25 57 22 58 39 59 26 60 40 61 27 63
REMARK SMILES IDX 28 64 37 65 29 66 34 67 31 68 33 69 38 70 30 72 35 74 36 75
REMARK SMILES IDX 32 77
REMARK H PARENT 62 33 60 35 64 37 50 39 1 42 48 44 46 46 17 48 44 51 40 62
REMARK H PARENT 38 71 30 73 36 76 32 78
ROOT
ATOM      1  C   UNL     1     -16.509  -1.420 -19.624  1.00  0.00    +0.186 C 
ATOM      2  C   UNL     1     -15.768  -1.829 -20.914  1.00  0.00    +0.177 C 
ATOM      3  C   UNL     1     -14.925  -3.110 -20.726  1.00  0.00    +0.178 C 
ATOM      4  O   UNL     1     -14.623  -3.346 -19.350  1.00  0.00    -0.341 OA
ATOM      5  C   UNL     1     -15.790  -3.615 -18.570  1.00  0.00    +0.282 C 
ATOM      6  C   UNL     1     -16.993  -2.697 -18.924  1.00  0.00    +0.202 C 
ENDROOT
BRANCH   1   7
ATOM      7  O   UNL     1     -15.733  -0.683 -18.648  1.00  0.00    -0.341 OA
BRANCH   7   8
ATOM      8  C   UNL     1     -15.220   0.566 -19.131  1.00  0.00    +0.282 C 
ATOM      9  C   UNL     1     -12.474   1.484 -18.671  1.00  0.00    +0.184 C 
ATOM     10  C   UNL     1     -12.830   0.159 -19.331  1.00  0.00    +0.179 C 
ATOM     11  C   UNL     1     -13.433   1.359 -17.489  1.00  0.00    +0.184 C 
ATOM     12  C   UNL     1     -12.825  -0.783 -18.127  1.00  0.00    +0.195 C 
ATOM     13  O   UNL     1     -14.106   0.294 -19.996  1.00  0.00    -0.341 OA
ATOM     14  O   UNL     1     -13.271   0.005 -17.000  1.00  0.00    -0.370 OA
ATOM     15  C   UNL     1     -14.883   1.534 -17.963  1.00  0.00    +0.202 C 
BRANCH   9  16
ATOM     16  O   UNL     1     -12.759   2.640 -19.448  1.00  0.00    -0.341 OA
BRANCH  16  17
ATOM     17  C   UNL     1     -11.676   3.090 -20.284  1.00  0.00    +0.282 C 
ATOM     18  C   UNL     1     -10.191   5.174 -20.550  1.00  0.00    +0.186 C 
ATOM     19  C   UNL     1     -10.400   4.870 -22.041  1.00  0.00    +0.177 C 
ATOM     20  C   UNL     1     -11.161   4.398 -19.646  1.00  0.00    +0.202 C 
ATOM     21  C   UNL     1     -11.817   4.389 -22.354  1.00  0.00    +0.178 C 
ATOM     22  O   UNL     1     -12.160   3.213 -21.616  1.00  0.00    -0.341 OA
BRANCH  18  23
ATOM     23  O   UNL     1     -10.380   6.596 -20.374  1.00  0.00    -0.341 OA
BRANCH  23  24
ATOM     24  C   UNL     1      -9.512   7.181 -19.394  1.00  0.00    +0.282 C 
ATOM     25  C   UNL     1      -8.385   8.367 -21.846  1.00  0.00    +0.195 C 
ATOM     26  C   UNL     1      -8.392   9.057 -20.484  1.00  0.00    +0.178 C 
ATOM     27  O   UNL     1      -7.622   7.149 -21.673  1.00  0.00    -0.370 OA
ATOM     28  C   UNL     1      -7.039   8.632 -19.947  1.00  0.00    +0.177 C 
ATOM     29  O   UNL     1      -9.434   8.603 -19.600  1.00  0.00    -0.341 OA
ATOM     30  C   UNL     1      -7.134   7.154 -20.313  1.00  0.00    +0.183 C 
ATOM     31  C   UNL     1      -8.141   6.446 -19.396  1.00  0.00    +0.202 C 
BRANCH  28  32
ATOM     32  O   UNL     1      -6.874   8.870 -18.556  1.00  0.00    -0.387 OA
ATOM     33  H   UNL     1      -6.850   8.002 -18.111  1.00  0.00    +0.211 HD
ENDBRANCH  28  32
BRANCH  31  34
ATOM     34  O   UNL     1      -7.613   6.365 -18.060  1.00  0.00    -0.385 OA
ATOM     35  H   UNL     1      -7.345   5.430 -17.921  1.00  0.00    +0.211 HD
ENDBRANCH  31  34
ENDBRANCH  23  24
ENDBRANCH  18  23
BRANCH  19  36
ATOM     36  O   UNL     1      -9.473   3.829 -22.403  1.00  0.00    -0.387 OA
ATOM     37  H   UNL     1      -9.095   4.053 -23.273  1.00  0.00    +0.211 HD
ENDBRANCH  19  36
BRANCH  20  38
ATOM     38  O   UNL     1     -10.526   4.122 -18.382  1.00  0.00    -0.385 OA
ATOM     39  H   UNL     1     -10.749   4.875 -17.796  1.00  0.00    +0.211 HD
ENDBRANCH  20  38
BRANCH  21  40
ATOM     40  C   UNL     1     -12.916   5.448 -22.191  1.00  0.00    +0.191 C 
BRANCH  40  41
ATOM     41  O   UNL     1     -14.062   4.850 -21.567  1.00  0.00    -0.394 OA
ATOM     42  H   UNL     1     -13.736   4.518 -20.699  1.00  0.00    +0.210 HD
ENDBRANCH  40  41
ENDBRANCH  21  40
ENDBRANCH  16  17
ENDBRANCH   9  16
BRANCH  15  43
ATOM     43  O   UNL     1     -15.790   1.359 -16.867  1.00  0.00    -0.385 OA
ATOM     44  H   UNL     1     -16.239   2.224 -16.775  1.00  0.00    +0.211 HD
ENDBRANCH  15  43
ENDBRANCH   7   8
ENDBRANCH   1   7
BRANCH   2  45
ATOM     45  O   UNL     1     -16.730  -2.057 -21.957  1.00  0.00    -0.387 OA
ATOM     46  H   UNL     1     -17.558  -2.320 -21.506  1.00  0.00    +0.211 HD
ENDBRANCH   2  45
BRANCH   6  47
ATOM     47  O   UNL     1     -17.726  -2.352 -17.733  1.00  0.00    -0.385 OA
ATOM     48  H   UNL     1     -18.626  -2.705 -17.866  1.00  0.00    +0.211 HD
ENDBRANCH   6  47
BRANCH   3  49
ATOM     49  C   UNL     1     -13.605  -3.013 -21.504  1.00  0.00    +0.191 C 
BRANCH  49  50
ATOM     50  O   UNL     1     -13.606  -1.901 -22.395  1.00  0.00    -0.394 OA
ATOM     51  H   UNL     1     -13.381  -1.111 -21.853  1.00  0.00    +0.210 HD
ENDBRANCH  49  50
ENDBRANCH   3  49
BRANCH   5  52
ATOM     52  O   UNL     1     -16.200  -4.979 -18.718  1.00  0.00    -0.341 OA
BRANCH  52  53
ATOM     53  C   UNL     1     -16.385  -5.660 -17.474  1.00  0.00    +0.184 C 
ATOM     54  C   UNL     1     -16.007  -7.120 -17.656  1.00  0.00    +0.179 C 
ATOM     55  C   UNL     1     -15.326  -5.320 -16.419  1.00  0.00    +0.184 C 
ATOM     56  C   UNL     1     -14.483  -7.018 -17.770  1.00  0.00    +0.195 C 
ATOM     57  O   UNL     1     -16.436  -7.882 -16.505  1.00  0.00    -0.341 OA
ATOM     58  O   UNL     1     -14.096  -5.948 -16.873  1.00  0.00    -0.370 OA
ATOM     59  C   UNL     1     -15.725  -5.974 -15.091  1.00  0.00    +0.202 C 
ATOM     60  C   UNL     1     -15.796  -7.512 -15.278  1.00  0.00    +0.282 C 
BRANCH  59  61
ATOM     61  O   UNL     1     -16.987  -5.446 -14.649  1.00  0.00    -0.385 OA
ATOM     62  H   UNL     1     -17.633  -5.702 -15.337  1.00  0.00    +0.211 HD
ENDBRANCH  59  61
BRANCH  60  63
ATOM     63  O   UNL     1     -16.576  -8.043 -14.199  1.00  0.00    -0.341 OA
BRANCH  63  64
ATOM     64  C   UNL     1     -16.076  -9.277 -13.661  1.00  0.00    +0.186 C 
ATOM     65  C   UNL     1     -14.541  -9.145 -13.562  1.00  0.00    +0.177 C 
ATOM     66  C   UNL     1     -16.647  -9.646 -12.272  1.00  0.00    +0.202 C 
ATOM     67  C   UNL     1     -14.159  -8.166 -12.433  1.00  0.00    +0.178 C 
ATOM     68  C   UNL     1     -16.154  -8.645 -11.199  1.00  0.00    +0.279 C 
ATOM     69  O   UNL     1     -14.730  -8.583 -11.184  1.00  0.00    -0.342 OA
BRANCH  65  70
ATOM     70  O   UNL     1     -13.937 -10.431 -13.352  1.00  0.00    -0.387 OA
ATOM     71  H   UNL     1     -14.491 -11.087 -13.835  1.00  0.00    +0.211 HD
ENDBRANCH  65  70
BRANCH  66  72
ATOM     72  O   UNL     1     -16.213 -10.985 -11.956  1.00  0.00    -0.385 OA
ATOM     73  H   UNL     1     -16.553 -11.200 -11.066  1.00  0.00    +0.211 HD
ENDBRANCH  66  72
BRANCH  67  74
ATOM     74  C   UNL     1     -12.634  -8.041 -12.252  1.00  0.00    +0.191 C 
BRANCH  74  75
ATOM     75  O   UNL     1     -12.055  -9.112 -11.509  1.00  0.00    -0.394 OA
ATOM     76  H   UNL     1     -12.059  -9.898 -12.096  1.00  0.00    +0.210 HD
ENDBRANCH  74  75
ENDBRANCH  67  74
BRANCH  68  77
ATOM     77  O   UNL     1     -16.723  -7.352 -11.314  1.00  0.00    -0.366 OA
ATOM     78  H   UNL     1     -16.732  -7.101 -12.257  1.00  0.00    +0.213 HD
ENDBRANCH  68  77
ENDBRANCH  63  64
ENDBRANCH  60  63
ENDBRANCH  52  53
ENDBRANCH   5  52
TORSDOF 27
ENDMDL
