MODEL 1
REMARK VINA RESULT:    -7.947      0.000      0.000
REMARK INTER + INTRA:         -12.579
REMARK INTER:                 -11.664
REMARK INTRA:                  -0.915
REMARK UNBOUND:                -0.915
REMARK SMILES O=S(=O)(O)OC[C@@H]1O[C@H](O[C@H]2[C@@H]3OC[C@H]2O[C@@H](O)[C@H]3O)[C@@H](O)[C@H](O)[C@@H]1O
REMARK SMILES IDX 9 1 21 2 23 3 25 4 7 5 8 6 10 7 11 8 14 9 15 10 13 11 16 12
REMARK SMILES IDX 12 13 17 14 19 15 18 16 20 18 22 20 24 22 6 24 5 25 2 26
REMARK SMILES IDX 1 27 3 28 4 29 26 31
REMARK H PARENT 18 17 20 19 22 21 24 23 4 30 26 32
ROOT
ATOM      1  C   UNL     1      -3.801 -12.325  -2.191  1.00  0.00    +0.282 C 
ATOM      2  C   UNL     1      -3.112 -11.647  -3.391  1.00  0.00    +0.202 C 
ATOM      3  C   UNL     1      -1.609 -11.787  -3.217  1.00  0.00    +0.179 C 
ATOM      4  C   UNL     1      -1.228 -13.269  -3.280  1.00  0.00    +0.177 C 
ATOM      5  C   UNL     1      -2.279 -14.190  -2.615  1.00  0.00    +0.180 C 
ATOM      6  O   UNL     1      -3.126 -13.479  -1.692  1.00  0.00    -0.341 OA
ENDROOT
BRANCH   1   7
ATOM      7  O   UNL     1      -5.160 -12.582  -2.554  1.00  0.00    -0.341 OA
BRANCH   7   8
ATOM      8  C   UNL     1      -6.084 -12.241  -1.525  1.00  0.00    +0.184 C 
ATOM      9  C   UNL     1      -8.249 -11.830  -0.726  1.00  0.00    +0.195 C 
ATOM     10  C   UNL     1      -7.526 -12.632  -1.810  1.00  0.00    +0.179 C 
ATOM     11  O   UNL     1      -7.470 -10.619  -0.544  1.00  0.00    -0.370 OA
ATOM     12  O   UNL     1      -7.896 -12.247  -3.146  1.00  0.00    -0.342 OA
ATOM     13  C   UNL     1      -6.311 -10.738  -1.408  1.00  0.00    +0.184 C 
ATOM     14  C   UNL     1      -7.813 -10.858  -3.448  1.00  0.00    +0.279 C 
ATOM     15  C   UNL     1      -6.615 -10.139  -2.788  1.00  0.00    +0.202 C 
BRANCH  14  16
ATOM     16  O   UNL     1      -9.037 -10.234  -3.068  1.00  0.00    -0.366 OA
ATOM     17  H   UNL     1      -9.537 -10.151  -3.899  1.00  0.00    +0.213 HD
ENDBRANCH  14  16
BRANCH  15  18
ATOM     18  O   UNL     1      -6.864  -8.732  -2.676  1.00  0.00    -0.385 OA
ATOM     19  H   UNL     1      -7.780  -8.626  -3.011  1.00  0.00    +0.211 HD
ENDBRANCH  15  18
ENDBRANCH   7   8
ENDBRANCH   1   7
BRANCH   2  20
ATOM     20  O   UNL     1      -3.450 -10.252  -3.471  1.00  0.00    -0.385 OA
ATOM     21  H   UNL     1      -3.578  -9.951  -2.550  1.00  0.00    +0.211 HD
ENDBRANCH   2  20
BRANCH   3  22
ATOM     22  O   UNL     1      -0.916 -11.075  -4.255  1.00  0.00    -0.387 OA
ATOM     23  H   UNL     1      -0.572 -10.267  -3.819  1.00  0.00    +0.211 HD
ENDBRANCH   3  22
BRANCH   5  24
ATOM     24  C   UNL     1      -3.096 -15.058  -3.590  1.00  0.00    +0.220 C 
BRANCH  24  25
ATOM     25  O   UNL     1      -2.325 -16.210  -3.925  1.00  0.00    -0.245 OA
BRANCH  25  26
ATOM     26  S   UNL     1      -3.114 -17.508  -4.497  1.00  0.00    +0.397 S 
ATOM     27  O   UNL     1      -4.397 -17.634  -3.843  1.00  0.00    -0.169 OA
ATOM     28  O   UNL     1      -2.179 -18.608  -4.577  1.00  0.00    -0.169 OA
BRANCH  26  29
ATOM     29  O   UNL     1      -3.384 -17.088  -6.027  1.00  0.00    -0.264 OA
ATOM     30  H   UNL     1      -4.261 -17.447  -6.271  1.00  0.00    +0.236 HD
ENDBRANCH  26  29
ENDBRANCH  25  26
ENDBRANCH  24  25
ENDBRANCH   5  24
BRANCH   4  31
ATOM     31  O   UNL     1      -0.998 -13.636  -4.644  1.00  0.00    -0.387 OA
ATOM     32  H   UNL     1      -0.992 -14.620  -4.642  1.00  0.00    +0.211 HD
ENDBRANCH   4  31
TORSDOF 11
ENDMDL
MODEL 2
REMARK VINA RESULT:    -7.560      9.710     12.801
REMARK INTER + INTRA:         -12.010
REMARK INTER:                 -11.292
REMARK INTRA:                  -0.719
REMARK UNBOUND:                -0.915
REMARK SMILES O=S(=O)(O)OC[C@@H]1O[C@H](O[C@H]2[C@@H]3OC[C@H]2O[C@@H](O)[C@H]3O)[C@@H](O)[C@H](O)[C@@H]1O
REMARK SMILES IDX 9 1 21 2 23 3 25 4 7 5 8 6 10 7 11 8 14 9 15 10 13 11 16 12
REMARK SMILES IDX 12 13 17 14 19 15 18 16 20 18 22 20 24 22 6 24 5 25 2 26
REMARK SMILES IDX 1 27 3 28 4 29 26 31
REMARK H PARENT 18 17 20 19 22 21 24 23 4 30 26 32
ROOT
ATOM      1  C   UNL     1       3.511 -16.512  -8.498  1.00  0.00    +0.282 C 
ATOM      2  C   UNL     1       4.633 -16.894  -7.513  1.00  0.00    +0.202 C 
ATOM      3  C   UNL     1       4.111 -16.699  -6.100  1.00  0.00    +0.179 C 
ATOM      4  C   UNL     1       2.960 -17.677  -5.846  1.00  0.00    +0.177 C 
ATOM      5  C   UNL     1       2.067 -17.892  -7.091  1.00  0.00    +0.180 C 
ATOM      6  O   UNL     1       2.193 -16.824  -8.048  1.00  0.00    -0.341 OA
ENDROOT
BRANCH   1   7
ATOM      7  O   UNL     1       3.825 -17.093  -9.766  1.00  0.00    -0.341 OA
BRANCH   7   8
ATOM      8  C   UNL     1       5.071 -17.781  -9.769  1.00  0.00    +0.184 C 
ATOM      9  C   UNL     1       7.081 -18.440 -10.779  1.00  0.00    +0.195 C 
ATOM     10  C   UNL     1       6.060 -17.302 -10.820  1.00  0.00    +0.179 C 
ATOM     11  O   UNL     1       6.326 -19.639 -10.470  1.00  0.00    -0.370 OA
ATOM     12  O   UNL     1       5.410 -17.166 -12.097  1.00  0.00    -0.342 OA
ATOM     13  C   UNL     1       4.953 -19.220 -10.257  1.00  0.00    +0.184 C 
ATOM     14  C   UNL     1       4.827 -18.348 -12.636  1.00  0.00    +0.279 C 
ATOM     15  C   UNL     1       4.175 -19.268 -11.580  1.00  0.00    +0.202 C 
BRANCH  14  16
ATOM     16  O   UNL     1       5.824 -19.058 -13.365  1.00  0.00    -0.366 OA
ATOM     17  H   UNL     1       5.978 -18.517 -14.160  1.00  0.00    +0.213 HD
ENDBRANCH  14  16
BRANCH  15  18
ATOM     18  O   UNL     1       4.092 -20.616 -12.060  1.00  0.00    -0.385 OA
ATOM     19  H   UNL     1       5.029 -20.893 -12.152  1.00  0.00    +0.211 HD
ENDBRANCH  15  18
ENDBRANCH   7   8
ENDBRANCH   1   7
BRANCH   2  20
ATOM     20  O   UNL     1       5.800 -16.075  -7.703  1.00  0.00    -0.385 OA
ATOM     21  H   UNL     1       5.765 -15.765  -8.629  1.00  0.00    +0.211 HD
ENDBRANCH   2  20
BRANCH   3  22
ATOM     22  O   UNL     1       5.156 -16.937  -5.142  1.00  0.00    -0.387 OA
ATOM     23  H   UNL     1       5.063 -17.884  -4.902  1.00  0.00    +0.211 HD
ENDBRANCH   3  22
BRANCH   5  24
ATOM     24  C   UNL     1       2.195 -19.276  -7.755  1.00  0.00    +0.220 C 
BRANCH  24  25
ATOM     25  O   UNL     1       0.997 -20.008  -7.510  1.00  0.00    -0.245 OA
BRANCH  25  26
ATOM     26  S   UNL     1       0.977 -21.028  -6.248  1.00  0.00    +0.397 S 
ATOM     27  O   UNL     1       2.307 -21.538  -6.004  1.00  0.00    -0.169 OA
ATOM     28  O   UNL     1      -0.169 -21.899  -6.386  1.00  0.00    -0.169 OA
BRANCH  26  29
ATOM     29  O   UNL     1       0.599 -20.045  -5.030  1.00  0.00    -0.264 OA
ATOM     30  H   UNL     1       0.870 -20.496  -4.205  1.00  0.00    +0.236 HD
ENDBRANCH  26  29
ENDBRANCH  25  26
ENDBRANCH  24  25
ENDBRANCH   5  24
BRANCH   4  31
ATOM     31  O   UNL     1       3.495 -18.915  -5.365  1.00  0.00    -0.387 OA
ATOM     32  H   UNL     1       2.787 -19.289  -4.793  1.00  0.00    +0.211 HD
ENDBRANCH   4  31
TORSDOF 11
ENDMDL
MODEL 3
REMARK VINA RESULT:    -7.538     24.355     27.027
REMARK INTER + INTRA:         -11.978
REMARK INTER:                 -10.840
REMARK INTRA:                  -1.138
REMARK UNBOUND:                -0.915
REMARK SMILES O=S(=O)(O)OC[C@@H]1O[C@H](O[C@H]2[C@@H]3OC[C@H]2O[C@@H](O)[C@H]3O)[C@@H](O)[C@H](O)[C@@H]1O
REMARK SMILES IDX 9 1 21 2 23 3 25 4 7 5 8 6 10 7 11 8 14 9 15 10 13 11 16 12
REMARK SMILES IDX 12 13 17 14 19 15 18 16 20 18 22 20 24 22 6 24 5 25 2 26
REMARK SMILES IDX 1 27 3 28 4 29 26 31
REMARK H PARENT 18 17 20 19 22 21 24 23 4 30 26 32
ROOT
ATOM      1  C   UNL     1      -8.769   6.445 -21.168  1.00  0.00    +0.282 C 
ATOM      2  C   UNL     1     -10.014   6.118 -22.015  1.00  0.00    +0.202 C 
ATOM      3  C   UNL     1     -10.095   4.610 -22.176  1.00  0.00    +0.179 C 
ATOM      4  C   UNL     1     -10.322   3.965 -20.806  1.00  0.00    +0.177 C 
ATOM      5  C   UNL     1      -9.562   4.688 -19.667  1.00  0.00    +0.180 C 
ATOM      6  O   UNL     1      -8.467   5.484 -20.158  1.00  0.00    -0.341 OA
ENDROOT
BRANCH   1   7
ATOM      7  O   UNL     1      -8.925   7.771 -20.654  1.00  0.00    -0.341 OA
BRANCH   7   8
ATOM      8  C   UNL     1      -7.878   8.149 -19.767  1.00  0.00    +0.184 C 
ATOM      9  C   UNL     1      -6.887   9.606 -18.221  1.00  0.00    +0.195 C 
ATOM     10  C   UNL     1      -8.268   9.192 -18.731  1.00  0.00    +0.179 C 
ATOM     11  O   UNL     1      -5.993   9.490 -19.358  1.00  0.00    -0.370 OA
ATOM     12  O   UNL     1      -8.992  10.270 -19.351  1.00  0.00    -0.342 OA
ATOM     13  C   UNL     1      -6.783   8.959 -20.453  1.00  0.00    +0.184 C 
ATOM     14  C   UNL     1      -8.304  10.987 -20.370  1.00  0.00    +0.279 C 
ATOM     15  C   UNL     1      -7.403  10.106 -21.264  1.00  0.00    +0.202 C 
BRANCH  14  16
ATOM     16  O   UNL     1      -7.538  12.024 -19.762  1.00  0.00    -0.366 OA
ATOM     17  H   UNL     1      -8.179  12.740 -19.603  1.00  0.00    +0.213 HD
ENDBRANCH  14  16
BRANCH  15  18
ATOM     18  O   UNL     1      -6.374  10.890 -21.882  1.00  0.00    -0.385 OA
ATOM     19  H   UNL     1      -6.739  11.102 -22.768  1.00  0.00    +0.211 HD
ENDBRANCH  15  18
ENDBRANCH   7   8
ENDBRANCH   1   7
BRANCH   2  20
ATOM     20  O   UNL     1      -9.941   6.729 -23.314  1.00  0.00    -0.385 OA
ATOM     21  H   UNL     1      -9.198   6.294 -23.776  1.00  0.00    +0.211 HD
ENDBRANCH   2  20
BRANCH   3  22
ATOM     22  O   UNL     1     -11.179   4.256 -23.051  1.00  0.00    -0.387 OA
ATOM     23  H   UNL     1     -11.599   3.477 -22.627  1.00  0.00    +0.211 HD
ENDBRANCH   3  22
BRANCH   5  24
ATOM     24  C   UNL     1     -10.451   5.476 -18.688  1.00  0.00    +0.220 C 
BRANCH  24  25
ATOM     25  O   UNL     1     -10.658   4.679 -17.524  1.00  0.00    -0.245 OA
BRANCH  25  26
ATOM     26  S   UNL     1     -12.171   4.185 -17.204  1.00  0.00    +0.397 S 
ATOM     27  O   UNL     1     -12.213   2.742 -17.125  1.00  0.00    -0.169 OA
ATOM     28  O   UNL     1     -13.080   4.937 -18.040  1.00  0.00    -0.169 OA
BRANCH  26  29
ATOM     29  O   UNL     1     -12.405   4.764 -15.721  1.00  0.00    -0.264 OA
ATOM     30  H   UNL     1     -12.558   5.726 -15.811  1.00  0.00    +0.236 HD
ENDBRANCH  26  29
ENDBRANCH  25  26
ENDBRANCH  24  25
ENDBRANCH   5  24
BRANCH   4  31
ATOM     31  O   UNL     1     -11.728   3.907 -20.542  1.00  0.00    -0.387 OA
ATOM     32  H   UNL     1     -12.017   4.846 -20.511  1.00  0.00    +0.211 HD
ENDBRANCH   4  31
TORSDOF 11
ENDMDL
MODEL 4
REMARK VINA RESULT:    -7.531      9.819     13.289
REMARK INTER + INTRA:         -11.968
REMARK INTER:                 -10.336
REMARK INTRA:                  -1.632
REMARK UNBOUND:                -0.915
REMARK SMILES O=S(=O)(O)OC[C@@H]1O[C@H](O[C@H]2[C@@H]3OC[C@H]2O[C@@H](O)[C@H]3O)[C@@H](O)[C@H](O)[C@@H]1O
REMARK SMILES IDX 9 1 21 2 23 3 25 4 7 5 8 6 10 7 11 8 14 9 15 10 13 11 16 12
REMARK SMILES IDX 12 13 17 14 19 15 18 16 20 18 22 20 24 22 6 24 5 25 2 26
REMARK SMILES IDX 1 27 3 28 4 29 26 31
REMARK H PARENT 18 17 20 19 22 21 24 23 4 30 26 32
ROOT
ATOM      1  C   UNL     1       3.420 -17.605  -8.493  1.00  0.00    +0.282 C 
ATOM      2  C   UNL     1       4.136 -16.483  -7.716  1.00  0.00    +0.202 C 
ATOM      3  C   UNL     1       3.234 -16.047  -6.574  1.00  0.00    +0.179 C 
ATOM      4  C   UNL     1       3.061 -17.210  -5.593  1.00  0.00    +0.177 C 
ATOM      5  C   UNL     1       2.984 -18.586  -6.298  1.00  0.00    +0.180 C 
ATOM      6  O   UNL     1       2.623 -18.471  -7.687  1.00  0.00    -0.341 OA
ENDROOT
BRANCH   1   7
ATOM      7  O   UNL     1       4.405 -18.302  -9.262  1.00  0.00    -0.341 OA
BRANCH   7   8
ATOM      8  C   UNL     1       4.254 -18.107 -10.664  1.00  0.00    +0.184 C 
ATOM      9  C   UNL     1       4.722 -18.633 -12.900  1.00  0.00    +0.195 C 
ATOM     10  C   UNL     1       4.673 -19.292 -11.521  1.00  0.00    +0.179 C 
ATOM     11  O   UNL     1       5.139 -17.262 -12.670  1.00  0.00    -0.370 OA
ATOM     12  O   UNL     1       5.947 -19.800 -11.086  1.00  0.00    -0.342 OA
ATOM     13  C   UNL     1       5.247 -17.098 -11.232  1.00  0.00    +0.184 C 
ATOM     14  C   UNL     1       7.040 -18.889 -11.139  1.00  0.00    +0.279 C 
ATOM     15  C   UNL     1       6.669 -17.437 -10.766  1.00  0.00    +0.202 C 
BRANCH  14  16
ATOM     16  O   UNL     1       7.612 -18.937 -12.443  1.00  0.00    -0.366 OA
ATOM     17  H   UNL     1       6.883 -18.687 -13.039  1.00  0.00    +0.213 HD
ENDBRANCH  14  16
BRANCH  15  18
ATOM     18  O   UNL     1       7.610 -16.511 -11.326  1.00  0.00    -0.385 OA
ATOM     19  H   UNL     1       7.309 -16.400 -12.254  1.00  0.00    +0.211 HD
ENDBRANCH  15  18
ENDBRANCH   7   8
ENDBRANCH   1   7
BRANCH   2  20
ATOM     20  O   UNL     1       4.410 -15.352  -8.561  1.00  0.00    -0.385 OA
ATOM     21  H   UNL     1       4.930 -15.696  -9.313  1.00  0.00    +0.211 HD
ENDBRANCH   2  20
BRANCH   3  22
ATOM     22  O   UNL     1       3.809 -14.925  -5.882  1.00  0.00    -0.387 OA
ATOM     23  H   UNL     1       3.199 -14.180  -6.065  1.00  0.00    +0.211 HD
ENDBRANCH   3  22
BRANCH   5  24
ATOM     24  C   UNL     1       4.213 -19.491  -6.098  1.00  0.00    +0.220 C 
BRANCH  24  25
ATOM     25  O   UNL     1       3.917 -20.780  -6.631  1.00  0.00    -0.245 OA
BRANCH  25  26
ATOM     26  S   UNL     1       4.942 -21.400  -7.726  1.00  0.00    +0.397 S 
ATOM     27  O   UNL     1       4.255 -21.614  -8.980  1.00  0.00    -0.169 OA
ATOM     28  O   UNL     1       5.717 -22.438  -7.086  1.00  0.00    -0.169 OA
BRANCH  26  29
ATOM     29  O   UNL     1       5.979 -20.187  -7.937  1.00  0.00    -0.264 OA
ATOM     30  H   UNL     1       5.446 -19.380  -8.092  1.00  0.00    +0.236 HD
ENDBRANCH  26  29
ENDBRANCH  25  26
ENDBRANCH  24  25
ENDBRANCH   5  24
BRANCH   4  31
ATOM     31  O   UNL     1       4.121 -17.174  -4.631  1.00  0.00    -0.387 OA
ATOM     32  H   UNL     1       3.906 -17.890  -3.993  1.00  0.00    +0.211 HD
ENDBRANCH   4  31
TORSDOF 11
ENDMDL
MODEL 5
REMARK VINA RESULT:    -7.505      2.103      3.488
REMARK INTER + INTRA:         -11.930
REMARK INTER:                 -10.668
REMARK INTRA:                  -1.262
REMARK UNBOUND:                -0.915
REMARK SMILES O=S(=O)(O)OC[C@@H]1O[C@H](O[C@H]2[C@@H]3OC[C@H]2O[C@@H](O)[C@H]3O)[C@@H](O)[C@H](O)[C@@H]1O
REMARK SMILES IDX 9 1 21 2 23 3 25 4 7 5 8 6 10 7 11 8 14 9 15 10 13 11 16 12
REMARK SMILES IDX 12 13 17 14 19 15 18 16 20 18 22 20 24 22 6 24 5 25 2 26
REMARK SMILES IDX 1 27 3 28 4 29 26 31
REMARK H PARENT 18 17 20 19 22 21 24 23 4 30 26 32
ROOT
ATOM      1  C   UNL     1      -6.685 -12.010  -1.594  1.00  0.00    +0.282 C 
ATOM      2  C   UNL     1      -5.859 -10.896  -2.267  1.00  0.00    +0.202 C 
ATOM      3  C   UNL     1      -4.812 -10.418  -1.276  1.00  0.00    +0.179 C 
ATOM      4  C   UNL     1      -3.837 -11.561  -0.979  1.00  0.00    +0.177 C 
ATOM      5  C   UNL     1      -4.528 -12.944  -0.927  1.00  0.00    +0.180 C 
ATOM      6  O   UNL     1      -5.947 -12.840  -0.700  1.00  0.00    -0.341 OA
ENDROOT
BRANCH   1   7
ATOM      7  O   UNL     1      -7.350 -12.745  -2.625  1.00  0.00    -0.341 OA
BRANCH   7   8
ATOM      8  C   UNL     1      -8.727 -12.974  -2.343  1.00  0.00    +0.184 C 
ATOM      9  C   UNL     1     -10.863 -13.757  -2.908  1.00  0.00    +0.195 C 
ATOM     10  C   UNL     1      -9.390 -14.022  -3.224  1.00  0.00    +0.179 C 
ATOM     11  O   UNL     1     -10.964 -12.331  -2.658  1.00  0.00    -0.370 OA
ATOM     12  O   UNL     1      -9.055 -13.802  -4.606  1.00  0.00    -0.342 OA
ATOM     13  C   UNL     1      -9.616 -11.800  -2.738  1.00  0.00    +0.184 C 
ATOM     14  C   UNL     1      -9.440 -12.547  -5.156  1.00  0.00    +0.279 C 
ATOM     15  C   UNL     1      -9.305 -11.361  -4.175  1.00  0.00    +0.202 C 
BRANCH  14  16
ATOM     16  O   UNL     1     -10.780 -12.647  -5.631  1.00  0.00    -0.366 OA
ATOM     17  H   UNL     1     -10.942 -13.605  -5.704  1.00  0.00    +0.213 HD
ENDBRANCH  14  16
BRANCH  15  18
ATOM     18  O   UNL     1     -10.163 -10.279  -4.562  1.00  0.00    -0.385 OA
ATOM     19  H   UNL     1     -10.495 -10.545  -5.446  1.00  0.00    +0.211 HD
ENDBRANCH  15  18
ENDBRANCH   7   8
ENDBRANCH   1   7
BRANCH   2  20
ATOM     20  O   UNL     1      -6.688  -9.786  -2.651  1.00  0.00    -0.385 OA
ATOM     21  H   UNL     1      -7.481  -9.830  -2.080  1.00  0.00    +0.211 HD
ENDBRANCH   2  20
BRANCH   3  22
ATOM     22  O   UNL     1      -4.083  -9.302  -1.815  1.00  0.00    -0.387 OA
ATOM     23  H   UNL     1      -4.644  -8.968  -2.547  1.00  0.00    +0.211 HD
ENDBRANCH   3  22
BRANCH   5  24
ATOM     24  C   UNL     1      -4.203 -13.880  -2.105  1.00  0.00    +0.220 C 
BRANCH  24  25
ATOM     25  O   UNL     1      -2.911 -14.444  -1.892  1.00  0.00    -0.245 OA
BRANCH  25  26
ATOM     26  S   UNL     1      -1.960 -14.668  -3.189  1.00  0.00    +0.397 S 
ATOM     27  O   UNL     1      -0.712 -15.276  -2.786  1.00  0.00    -0.169 OA
ATOM     28  O   UNL     1      -2.007 -13.472  -3.999  1.00  0.00    -0.169 OA
BRANCH  26  29
ATOM     29  O   UNL     1      -2.790 -15.763  -4.026  1.00  0.00    -0.264 OA
ATOM     30  H   UNL     1      -2.326 -15.881  -4.880  1.00  0.00    +0.236 HD
ENDBRANCH  26  29
ENDBRANCH  25  26
ENDBRANCH  24  25
ENDBRANCH   5  24
BRANCH   4  31
ATOM     31  O   UNL     1      -2.780 -11.539  -1.945  1.00  0.00    -0.387 OA
ATOM     32  H   UNL     1      -3.154 -11.055  -2.715  1.00  0.00    +0.211 HD
ENDBRANCH   4  31
TORSDOF 11
ENDMDL
MODEL 6
REMARK VINA RESULT:    -7.496      4.383      6.698
REMARK INTER + INTRA:         -11.916
REMARK INTER:                 -10.885
REMARK INTRA:                  -1.031
REMARK UNBOUND:                -0.915
REMARK SMILES O=S(=O)(O)OC[C@@H]1O[C@H](O[C@H]2[C@@H]3OC[C@H]2O[C@@H](O)[C@H]3O)[C@@H](O)[C@H](O)[C@@H]1O
REMARK SMILES IDX 9 1 21 2 23 3 25 4 7 5 8 6 10 7 11 8 14 9 15 10 13 11 16 12
REMARK SMILES IDX 12 13 17 14 19 15 18 16 20 18 22 20 24 22 6 24 5 25 2 26
REMARK SMILES IDX 1 27 3 28 4 29 26 31
REMARK H PARENT 18 17 20 19 22 21 24 23 4 30 26 32
ROOT
ATOM      1  C   UNL     1      -9.238 -11.935  -3.891  1.00  0.00    +0.282 C 
ATOM      2  C   UNL     1      -9.259 -13.189  -4.787  1.00  0.00    +0.202 C 
ATOM      3  C   UNL     1     -10.343 -13.005  -5.834  1.00  0.00    +0.179 C 
ATOM      4  C   UNL     1      -9.974 -11.830  -6.744  1.00  0.00    +0.177 C 
ATOM      5  C   UNL     1      -9.283 -10.673  -5.983  1.00  0.00    +0.180 C 
ATOM      6  O   UNL     1      -9.542 -10.717  -4.567  1.00  0.00    -0.341 OA
ENDROOT
BRANCH   1   7
ATOM      7  O   UNL     1      -7.979 -11.903  -3.212  1.00  0.00    -0.341 OA
BRANCH   7   8
ATOM      8  C   UNL     1      -8.110 -11.699  -1.809  1.00  0.00    +0.184 C 
ATOM      9  C   UNL     1      -8.269 -10.332   0.088  1.00  0.00    +0.195 C 
ATOM     10  C   UNL     1      -8.580 -10.309  -1.409  1.00  0.00    +0.179 C 
ATOM     11  O   UNL     1      -7.086 -11.159   0.234  1.00  0.00    -0.370 OA
ATOM     12  O   UNL     1      -7.844  -9.304  -2.129  1.00  0.00    -0.342 OA
ATOM     13  C   UNL     1      -6.767 -11.663  -1.089  1.00  0.00    +0.184 C 
ATOM     14  C   UNL     1      -6.434  -9.296  -1.937  1.00  0.00    +0.279 C 
ATOM     15  C   UNL     1      -5.808 -10.702  -1.804  1.00  0.00    +0.202 C 
BRANCH  14  16
ATOM     16  O   UNL     1      -6.133  -8.509  -0.787  1.00  0.00    -0.366 OA
ATOM     17  H   UNL     1      -5.876  -7.641  -1.146  1.00  0.00    +0.213 HD
ENDBRANCH  14  16
BRANCH  15  18
ATOM     18  O   UNL     1      -4.556 -10.639  -1.109  1.00  0.00    -0.385 OA
ATOM     19  H   UNL     1      -4.492 -11.508  -0.658  1.00  0.00    +0.211 HD
ENDBRANCH  15  18
ENDBRANCH   7   8
ENDBRANCH   1   7
BRANCH   2  20
ATOM     20  O   UNL     1      -9.536 -14.376  -4.023  1.00  0.00    -0.385 OA
ATOM     21  H   UNL     1      -9.042 -15.099  -4.458  1.00  0.00    +0.211 HD
ENDBRANCH   2  20
BRANCH   3  22
ATOM     22  O   UNL     1     -10.479 -14.195  -6.630  1.00  0.00    -0.387 OA
ATOM     23  H   UNL     1     -11.162 -13.973  -7.298  1.00  0.00    +0.211 HD
ENDBRANCH   3  22
BRANCH   5  24
ATOM     24  C   UNL     1      -7.784 -10.497  -6.286  1.00  0.00    +0.220 C 
BRANCH  24  25
ATOM     25  O   UNL     1      -7.650  -9.900  -7.574  1.00  0.00    -0.245 OA
BRANCH  25  26
ATOM     26  S   UNL     1      -6.157  -9.780  -8.202  1.00  0.00    +0.397 S 
ATOM     27  O   UNL     1      -6.188  -8.969  -9.397  1.00  0.00    -0.169 OA
ATOM     28  O   UNL     1      -5.547 -11.090  -8.175  1.00  0.00    -0.169 OA
BRANCH  26  29
ATOM     29  O   UNL     1      -5.384  -8.944  -7.064  1.00  0.00    -0.264 OA
ATOM     30  H   UNL     1      -5.777  -8.048  -7.051  1.00  0.00    +0.236 HD
ENDBRANCH  26  29
ENDBRANCH  25  26
ENDBRANCH  24  25
ENDBRANCH   5  24
BRANCH   4  31
ATOM     31  O   UNL     1      -9.161 -12.308  -7.821  1.00  0.00    -0.387 OA
ATOM     32  H   UNL     1      -9.200 -13.288  -7.750  1.00  0.00    +0.211 HD
ENDBRANCH   4  31
TORSDOF 11
ENDMDL
MODEL 7
REMARK VINA RESULT:    -7.496     13.141     16.284
REMARK INTER + INTRA:         -11.916
REMARK INTER:                 -10.645
REMARK INTRA:                  -1.271
REMARK UNBOUND:                -0.915
REMARK SMILES O=S(=O)(O)OC[C@@H]1O[C@H](O[C@H]2[C@@H]3OC[C@H]2O[C@@H](O)[C@H]3O)[C@@H](O)[C@H](O)[C@@H]1O
REMARK SMILES IDX 9 1 21 2 23 3 25 4 7 5 8 6 10 7 11 8 14 9 15 10 13 11 16 12
REMARK SMILES IDX 12 13 17 14 19 15 18 16 20 18 22 20 24 22 6 24 5 25 2 26
REMARK SMILES IDX 1 27 3 28 4 29 26 31
REMARK H PARENT 18 17 20 19 22 21 24 23 4 30 26 32
ROOT
ATOM      1  C   UNL     1      -1.972   1.659  -8.355  1.00  0.00    +0.282 C 
ATOM      2  C   UNL     1      -0.836   2.487  -7.723  1.00  0.00    +0.202 C 
ATOM      3  C   UNL     1      -1.125   3.957  -7.974  1.00  0.00    +0.179 C 
ATOM      4  C   UNL     1      -2.409   4.352  -7.239  1.00  0.00    +0.177 C 
ATOM      5  C   UNL     1      -3.478   3.233  -7.247  1.00  0.00    +0.180 C 
ATOM      6  O   UNL     1      -3.258   2.273  -8.299  1.00  0.00    -0.341 OA
ENDROOT
BRANCH   1   7
ATOM      7  O   UNL     1      -1.945   0.356  -7.763  1.00  0.00    -0.341 OA
BRANCH   7   8
ATOM      8  C   UNL     1      -2.595  -0.629  -8.560  1.00  0.00    +0.184 C 
ATOM      9  C   UNL     1      -3.104  -2.847  -9.119  1.00  0.00    +0.195 C 
ATOM     10  C   UNL     1      -2.710  -1.999  -7.909  1.00  0.00    +0.179 C 
ATOM     11  O   UNL     1      -2.443  -2.242 -10.259  1.00  0.00    -0.370 OA
ATOM     12  O   UNL     1      -1.452  -2.385  -7.327  1.00  0.00    -0.342 OA
ATOM     13  C   UNL     1      -1.767  -1.057  -9.766  1.00  0.00    +0.184 C 
ATOM     14  C   UNL     1      -0.348  -2.481  -8.220  1.00  0.00    +0.279 C 
ATOM     15  C   UNL     1      -0.338  -1.406  -9.329  1.00  0.00    +0.202 C 
BRANCH  14  16
ATOM     16  O   UNL     1      -0.336  -3.786  -8.793  1.00  0.00    -0.366 OA
ATOM     17  H   UNL     1      -0.279  -3.630  -9.753  1.00  0.00    +0.213 HD
ENDBRANCH  14  16
BRANCH  15  18
ATOM     18  O   UNL     1       0.434  -1.842 -10.455  1.00  0.00    -0.385 OA
ATOM     19  H   UNL     1      -0.230  -2.244 -11.056  1.00  0.00    +0.211 HD
ENDBRANCH  15  18
ENDBRANCH   7   8
ENDBRANCH   1   7
BRANCH   2  20
ATOM     20  O   UNL     1       0.439   2.152  -8.296  1.00  0.00    -0.385 OA
ATOM     21  H   UNL     1       1.032   2.903  -8.095  1.00  0.00    +0.211 HD
ENDBRANCH   2  20
BRANCH   3  22
ATOM     22  O   UNL     1      -0.039   4.770  -7.499  1.00  0.00    -0.387 OA
ATOM     23  H   UNL     1       0.639   4.719  -8.205  1.00  0.00    +0.211 HD
ENDBRANCH   3  22
BRANCH   5  24
ATOM     24  C   UNL     1      -3.718   2.549  -5.889  1.00  0.00    +0.220 C 
BRANCH  24  25
ATOM     25  O   UNL     1      -4.584   3.375  -5.114  1.00  0.00    -0.245 OA
BRANCH  25  26
ATOM     26  S   UNL     1      -4.341   3.431  -3.510  1.00  0.00    +0.397 S 
ATOM     27  O   UNL     1      -4.949   2.281  -2.878  1.00  0.00    -0.169 OA
ATOM     28  O   UNL     1      -4.594   4.781  -3.059  1.00  0.00    -0.169 OA
BRANCH  26  29
ATOM     29  O   UNL     1      -2.744   3.257  -3.408  1.00  0.00    -0.264 OA
ATOM     30  H   UNL     1      -2.360   3.685  -4.200  1.00  0.00    +0.236 HD
ENDBRANCH  26  29
ENDBRANCH  25  26
ENDBRANCH  24  25
ENDBRANCH   5  24
BRANCH   4  31
ATOM     31  O   UNL     1      -2.082   4.752  -5.903  1.00  0.00    -0.387 OA
ATOM     32  H   UNL     1      -1.703   5.655  -5.998  1.00  0.00    +0.211 HD
ENDBRANCH   4  31
TORSDOF 11
ENDMDL
MODEL 8
REMARK VINA RESULT:    -7.448     23.920     26.392
REMARK INTER + INTRA:         -11.846
REMARK INTER:                 -10.731
REMARK INTRA:                  -1.115
REMARK UNBOUND:                -0.915
REMARK SMILES O=S(=O)(O)OC[C@@H]1O[C@H](O[C@H]2[C@@H]3OC[C@H]2O[C@@H](O)[C@H]3O)[C@@H](O)[C@H](O)[C@@H]1O
REMARK SMILES IDX 9 1 21 2 23 3 25 4 7 5 8 6 10 7 11 8 14 9 15 10 13 11 16 12
REMARK SMILES IDX 12 13 17 14 19 15 18 16 20 18 22 20 24 22 6 24 5 25 2 26
REMARK SMILES IDX 1 27 3 28 4 29 26 31
REMARK H PARENT 18 17 20 19 22 21 24 23 4 30 26 32
ROOT
ATOM      1  C   UNL     1      -9.153   8.301 -20.429  1.00  0.00    +0.282 C 
ATOM      2  C   UNL     1      -7.852   8.904 -20.994  1.00  0.00    +0.202 C 
ATOM      3  C   UNL     1      -7.640  10.263 -20.349  1.00  0.00    +0.179 C 
ATOM      4  C   UNL     1      -7.415  10.081 -18.846  1.00  0.00    +0.177 C 
ATOM      5  C   UNL     1      -8.277   8.946 -18.241  1.00  0.00    +0.180 C 
ATOM      6  O   UNL     1      -9.414   8.623 -19.064  1.00  0.00    -0.341 OA
ENDROOT
BRANCH   1   7
ATOM      7  O   UNL     1      -9.128   6.893 -20.680  1.00  0.00    -0.341 OA
BRANCH   7   8
ATOM      8  C   UNL     1     -10.291   6.224 -20.204  1.00  0.00    +0.184 C 
ATOM      9  C   UNL     1     -11.367   4.492 -19.048  1.00  0.00    +0.195 C 
ATOM     10  C   UNL     1     -10.044   5.259 -19.055  1.00  0.00    +0.179 C 
ATOM     11  O   UNL     1     -11.802   4.441 -20.431  1.00  0.00    -0.370 OA
ATOM     12  O   UNL     1      -8.905   4.426 -19.334  1.00  0.00    -0.342 OA
ATOM     13  C   UNL     1     -10.836   5.205 -21.198  1.00  0.00    +0.184 C 
ATOM     14  C   UNL     1      -8.989   3.613 -20.500  1.00  0.00    +0.279 C 
ATOM     15  C   UNL     1      -9.707   4.289 -21.689  1.00  0.00    +0.202 C 
BRANCH  14  16
ATOM     16  O   UNL     1      -9.636   2.390 -20.159  1.00  0.00    -0.366 OA
ATOM     17  H   UNL     1     -10.559   2.514 -20.443  1.00  0.00    +0.213 HD
ENDBRANCH  14  16
BRANCH  15  18
ATOM     18  O   UNL     1     -10.223   3.307 -22.598  1.00  0.00    -0.385 OA
ATOM     19  H   UNL     1      -9.895   3.601 -23.475  1.00  0.00    +0.211 HD
ENDBRANCH  15  18
ENDBRANCH   7   8
ENDBRANCH   1   7
BRANCH   2  20
ATOM     20  O   UNL     1      -7.923   9.064 -22.421  1.00  0.00    -0.385 OA
ATOM     21  H   UNL     1      -8.009   8.163 -22.790  1.00  0.00    +0.211 HD
ENDBRANCH   2  20
BRANCH   3  22
ATOM     22  O   UNL     1      -6.495  10.917 -20.923  1.00  0.00    -0.387 OA
ATOM     23  H   UNL     1      -5.727  10.385 -20.625  1.00  0.00    +0.211 HD
ENDBRANCH   3  22
BRANCH   5  24
ATOM     24  C   UNL     1      -7.497   7.687 -17.821  1.00  0.00    +0.220 C 
BRANCH  24  25
ATOM     25  O   UNL     1      -6.844   7.952 -16.581  1.00  0.00    -0.245 OA
BRANCH  25  26
ATOM     26  S   UNL     1      -6.738   6.739 -15.507  1.00  0.00    +0.397 S 
ATOM     27  O   UNL     1      -5.351   6.470 -15.202  1.00  0.00    -0.169 OA
ATOM     28  O   UNL     1      -7.655   5.696 -15.908  1.00  0.00    -0.169 OA
BRANCH  26  29
ATOM     29  O   UNL     1      -7.409   7.393 -14.198  1.00  0.00    -0.264 OA
ATOM     30  H   UNL     1      -7.788   6.658 -13.675  1.00  0.00    +0.236 HD
ENDBRANCH  26  29
ENDBRANCH  25  26
ENDBRANCH  24  25
ENDBRANCH   5  24
BRANCH   4  31
ATOM     31  O   UNL     1      -6.021   9.865 -18.602  1.00  0.00    -0.387 OA
ATOM     32  H   UNL     1      -5.951   9.748 -17.628  1.00  0.00    +0.211 HD
ENDBRANCH   4  31
TORSDOF 11
ENDMDL
MODEL 9
REMARK VINA RESULT:    -7.411      9.597     13.706
REMARK INTER + INTRA:         -11.791
REMARK INTER:                 -10.729
REMARK INTRA:                  -1.062
REMARK UNBOUND:                -0.915
REMARK SMILES O=S(=O)(O)OC[C@@H]1O[C@H](O[C@H]2[C@@H]3OC[C@H]2O[C@@H](O)[C@H]3O)[C@@H](O)[C@H](O)[C@@H]1O
REMARK SMILES IDX 9 1 21 2 23 3 25 4 7 5 8 6 10 7 11 8 14 9 15 10 13 11 16 12
REMARK SMILES IDX 12 13 17 14 19 15 18 16 20 18 22 20 24 22 6 24 5 25 2 26
REMARK SMILES IDX 1 27 3 28 4 29 26 31
REMARK H PARENT 18 17 20 19 22 21 24 23 4 30 26 32
ROOT
ATOM      1  C   UNL     1       4.706 -17.623  -9.172  1.00  0.00    +0.282 C 
ATOM      2  C   UNL     1       5.575 -18.166  -8.021  1.00  0.00    +0.202 C 
ATOM      3  C   UNL     1       5.544 -17.156  -6.887  1.00  0.00    +0.179 C 
ATOM      4  C   UNL     1       4.118 -17.053  -6.340  1.00  0.00    +0.177 C 
ATOM      5  C   UNL     1       3.039 -17.167  -7.444  1.00  0.00    +0.180 C 
ATOM      6  O   UNL     1       3.563 -16.878  -8.754  1.00  0.00    -0.341 OA
ENDROOT
BRANCH   1   7
ATOM      7  O   UNL     1       4.378 -18.721 -10.029  1.00  0.00    -0.341 OA
BRANCH   7   8
ATOM      8  C   UNL     1       4.894 -18.569 -11.347  1.00  0.00    +0.184 C 
ATOM      9  C   UNL     1       5.165 -19.270 -13.567  1.00  0.00    +0.195 C 
ATOM     10  C   UNL     1       4.172 -19.384 -12.410  1.00  0.00    +0.179 C 
ATOM     11  O   UNL     1       6.480 -19.209 -12.957  1.00  0.00    -0.370 OA
ATOM     12  O   UNL     1       3.976 -20.736 -11.959  1.00  0.00    -0.342 OA
ATOM     13  C   UNL     1       6.270 -19.201 -11.521  1.00  0.00    +0.184 C 
ATOM     14  C   UNL     1       5.152 -21.475 -11.650  1.00  0.00    +0.279 C 
ATOM     15  C   UNL     1       6.265 -20.638 -10.980  1.00  0.00    +0.202 C 
BRANCH  14  16
ATOM     16  O   UNL     1       5.639 -22.081 -12.844  1.00  0.00    -0.366 OA
ATOM     17  H   UNL     1       4.861 -22.127 -13.429  1.00  0.00    +0.213 HD
ENDBRANCH  14  16
BRANCH  15  18
ATOM     18  O   UNL     1       7.548 -21.247 -11.174  1.00  0.00    -0.385 OA
ATOM     19  H   UNL     1       8.011 -21.101 -10.321  1.00  0.00    +0.211 HD
ENDBRANCH  15  18
ENDBRANCH   7   8
ENDBRANCH   1   7
BRANCH   2  20
ATOM     20  O   UNL     1       6.936 -18.365  -8.440  1.00  0.00    -0.385 OA
ATOM     21  H   UNL     1       7.409 -17.537  -8.224  1.00  0.00    +0.211 HD
ENDBRANCH   2  20
BRANCH   3  22
ATOM     22  O   UNL     1       6.428 -17.564  -5.829  1.00  0.00    -0.387 OA
ATOM     23  H   UNL     1       5.836 -17.797  -5.083  1.00  0.00    +0.211 HD
ENDBRANCH   3  22
BRANCH   5  24
ATOM     24  C   UNL     1       2.224 -18.473  -7.428  1.00  0.00    +0.220 C 
BRANCH  24  25
ATOM     25  O   UNL     1       1.260 -18.392  -6.381  1.00  0.00    -0.245 OA
BRANCH  25  26
ATOM     26  S   UNL     1       0.534 -19.766  -5.912  1.00  0.00    +0.397 S 
ATOM     27  O   UNL     1       0.177 -20.556  -7.069  1.00  0.00    -0.169 OA
ATOM     28  O   UNL     1      -0.420 -19.444  -4.875  1.00  0.00    -0.169 OA
BRANCH  26  29
ATOM     29  O   UNL     1       1.727 -20.530  -5.148  1.00  0.00    -0.264 OA
ATOM     30  H   UNL     1       1.918 -21.343  -5.658  1.00  0.00    +0.236 HD
ENDBRANCH  26  29
ENDBRANCH  25  26
ENDBRANCH  24  25
ENDBRANCH   5  24
BRANCH   4  31
ATOM     31  O   UNL     1       3.932 -18.044  -5.323  1.00  0.00    -0.387 OA
ATOM     32  H   UNL     1       4.383 -18.846  -5.669  1.00  0.00    +0.211 HD
ENDBRANCH   4  31
TORSDOF 11
ENDMDL
