MODEL 1
REMARK VINA RESULT:    -7.277      0.000      0.000
REMARK INTER + INTRA:         -23.894
REMARK INTER:                 -18.339
REMARK INTRA:                  -5.555
REMARK UNBOUND:                -5.555
REMARK SMILES N[C@@H]1[C@@H](O[C@@H]2[C@H](N)[C@H](O[C@@H]3O[C@H](CO)[C@@H](O)[C@H](O[C@@H]4O[C@@H](CO)[C@@H](O)[C@H](O)[C@H]4N)[C@H]3N)O[C@@H](CO[C@H]3O[C@@H](CO)[C@@H](O)[C@H](O)[C@H]3N)[C@H]2O[C@H]2O[C@@H](CO)[C@@H](O)[C@@H](O)[C@H]2N)O[C@H](CO)[C@H](O)[C@H]1O
REMARK SMILES IDX 33 1 47 2 5 3 6 4 8 5 32 6 34 7 35 8 36 9 38 10 41 11 37 12
REMARK SMILES IDX 43 13 45 14 39 15 40 16 42 18 44 20 46 22 48 25 49 26 58 27
REMARK SMILES IDX 50 28 56 29 51 30 54 31 59 32 57 35 52 37 53 38 55 40 4 42
REMARK SMILES IDX 3 43 2 44 60 45 66 46 61 47 64 48 1 49 67 52 62 54 63 55
REMARK SMILES IDX 65 57 9 59 10 60 30 61 11 62 17 63 12 64 15 65 31 66 18 69
REMARK SMILES IDX 19 70 28 71 20 72 26 73 21 74 24 75 29 76 27 79 22 81 23 82
REMARK SMILES IDX 25 84 13 86 14 87 16 89 7 91
REMARK H PARENT 40 17 42 19 44 21 46 23 46 24 59 33 59 34 57 36 53 39 55 41
REMARK H PARENT 1 50 1 51 67 53 63 56 65 58 31 67 31 68 29 77 29 78 27 80
REMARK H PARENT 23 83 25 85 14 88 16 90 7 92 7 93
ROOT
ATOM      1  C   UNL     1       4.499   7.983 -10.726  1.00  0.00    +0.179 C 
ATOM      2  C   UNL     1       5.085   7.530 -12.080  1.00  0.00    +0.183 C 
ATOM      3  C   UNL     1       5.615   6.084 -12.006  1.00  0.00    +0.175 C 
ATOM      4  C   UNL     1       4.523   5.152 -11.438  1.00  0.00    +0.140 C 
ATOM      5  C   UNL     1       4.046   5.712 -10.068  1.00  0.00    +0.273 C 
ATOM      6  O   UNL     1       3.543   7.033 -10.221  1.00  0.00    -0.342 OA
ENDROOT
BRANCH   1   7
ATOM      7  C   UNL     1       5.588   8.325  -9.679  1.00  0.00    +0.198 C 
BRANCH   7   8
ATOM      8  O   UNL     1       5.362   9.617  -9.107  1.00  0.00    -0.348 OA
BRANCH   8   9
ATOM      9  C   UNL     1       6.122   9.832  -7.908  1.00  0.00    +0.270 C 
ATOM     10  C   UNL     1       7.901   8.909  -6.558  1.00  0.00    +0.178 C 
ATOM     11  C   UNL     1       7.717  10.236  -5.803  1.00  0.00    +0.176 C 
ATOM     12  O   UNL     1       7.036   8.760  -7.692  1.00  0.00    -0.342 OA
ATOM     13  C   UNL     1       7.706  11.446  -6.749  1.00  0.00    +0.167 C 
ATOM     14  C   UNL     1       6.874  11.192  -8.027  1.00  0.00    +0.139 C 
BRANCH  10  15
ATOM     15  C   UNL     1       9.342   8.628  -7.016  1.00  0.00    +0.191 C 
BRANCH  15  16
ATOM     16  O   UNL     1      10.143   8.116  -5.954  1.00  0.00    -0.394 OA
ATOM     17  H   UNL     1      10.913   8.706  -5.867  1.00  0.00    +0.210 HD
ENDBRANCH  15  16
ENDBRANCH  10  15
BRANCH  11  18
ATOM     18  O   UNL     1       8.686  10.435  -4.766  1.00  0.00    -0.388 OA
ATOM     19  H   UNL     1       8.818  11.397  -4.672  1.00  0.00    +0.211 HD
ENDBRANCH  11  18
BRANCH  13  20
ATOM     20  O   UNL     1       7.159  12.566  -6.024  1.00  0.00    -0.388 OA
ATOM     21  H   UNL     1       7.599  12.539  -5.153  1.00  0.00    +0.211 HD
ENDBRANCH  13  20
BRANCH  14  22
ATOM     22  N   UNL     1       7.759  11.217  -9.231  1.00  0.00    -0.321 NA
ATOM     23  H   UNL     1       7.689  12.177  -9.605  1.00  0.00    +0.119 HD
ATOM     24  H   UNL     1       8.732  11.182  -8.877  1.00  0.00    +0.119 HD
ENDBRANCH  14  22
ENDBRANCH   8   9
ENDBRANCH   7   8
ENDBRANCH   1   7
BRANCH   2  25
ATOM     25  O   UNL     1       6.166   8.400 -12.461  1.00  0.00    -0.342 OA
BRANCH  25  26
ATOM     26  C   UNL     1       5.811   9.269 -13.545  1.00  0.00    +0.270 C 
ATOM     27  C   UNL     1       6.245  10.720 -13.165  1.00  0.00    +0.139 C 
ATOM     28  O   UNL     1       4.408   9.212 -13.789  1.00  0.00    -0.342 OA
ATOM     29  C   UNL     1       5.833  11.718 -14.283  1.00  0.00    +0.167 C 
ATOM     30  C   UNL     1       3.925  10.120 -14.790  1.00  0.00    +0.178 C 
ATOM     31  C   UNL     1       5.013  11.036 -15.386  1.00  0.00    +0.176 C 
BRANCH  27  32
ATOM     32  N   UNL     1       5.757  11.103 -11.814  1.00  0.00    -0.321 NA
ATOM     33  H   UNL     1       5.838  10.274 -11.215  1.00  0.00    +0.119 HD
ATOM     34  H   UNL     1       6.445  11.754 -11.427  1.00  0.00    +0.119 HD
ENDBRANCH  27  32
BRANCH  29  35
ATOM     35  O   UNL     1       5.071  12.841 -13.795  1.00  0.00    -0.388 OA
ATOM     36  H   UNL     1       5.184  12.811 -12.822  1.00  0.00    +0.211 HD
ENDBRANCH  29  35
BRANCH  30  37
ATOM     37  C   UNL     1       2.687  10.850 -14.229  1.00  0.00    +0.191 C 
BRANCH  37  38
ATOM     38  O   UNL     1       2.687  10.986 -12.810  1.00  0.00    -0.394 OA
ATOM     39  H   UNL     1       2.026  11.680 -12.584  1.00  0.00    +0.210 HD
ENDBRANCH  37  38
ENDBRANCH  30  37
BRANCH  31  40
ATOM     40  O   UNL     1       4.480  12.032 -16.265  1.00  0.00    -0.388 OA
ATOM     41  H   UNL     1       3.676  12.396 -15.850  1.00  0.00    +0.211 HD
ENDBRANCH  31  40
ENDBRANCH  25  26
ENDBRANCH   2  25
BRANCH   3  42
ATOM     42  O   UNL     1       6.061   5.707 -13.327  1.00  0.00    -0.343 OA
BRANCH  42  43
ATOM     43  C   UNL     1       7.448   5.355 -13.405  1.00  0.00    +0.270 C 
ATOM     44  C   UNL     1       7.520   3.811 -13.541  1.00  0.00    +0.139 C 
ATOM     45  O   UNL     1       8.097   5.824 -12.220  1.00  0.00    -0.342 OA
ATOM     46  C   UNL     1       8.962   3.311 -13.371  1.00  0.00    +0.167 C 
ATOM     47  C   UNL     1       9.461   5.416 -12.074  1.00  0.00    +0.178 C 
ATOM     48  C   UNL     1       9.576   3.881 -12.090  1.00  0.00    +0.176 C 
BRANCH  44  49
ATOM     49  N   UNL     1       6.976   3.347 -14.841  1.00  0.00    -0.321 NA
ATOM     50  H   UNL     1       6.111   3.857 -15.023  1.00  0.00    +0.119 HD
ATOM     51  H   UNL     1       6.719   2.362 -14.724  1.00  0.00    +0.119 HD
ENDBRANCH  44  49
BRANCH  46  52
ATOM     52  O   UNL     1       8.973   1.874 -13.299  1.00  0.00    -0.388 OA
ATOM     53  H   UNL     1       8.155   1.591 -13.756  1.00  0.00    +0.211 HD
ENDBRANCH  46  52
BRANCH  47  54
ATOM     54  C   UNL     1      10.383   6.145 -13.070  1.00  0.00    +0.191 C 
BRANCH  54  55
ATOM     55  O   UNL     1      10.244   7.556 -12.942  1.00  0.00    -0.394 OA
ATOM     56  H   UNL     1      11.121   7.909 -12.693  1.00  0.00    +0.210 HD
ENDBRANCH  54  55
ENDBRANCH  47  54
BRANCH  48  57
ATOM     57  O   UNL     1      10.914   3.389 -11.958  1.00  0.00    -0.388 OA
ATOM     58  H   UNL     1      11.524   4.157 -12.035  1.00  0.00    +0.211 HD
ENDBRANCH  48  57
ENDBRANCH  42  43
ENDBRANCH   3  42
BRANCH   5  59
ATOM     59  O   UNL     1       3.023   4.845  -9.574  1.00  0.00    -0.320 OA
BRANCH  59  60
ATOM     60  C   UNL     1       2.911   4.828  -8.150  1.00  0.00    +0.273 C 
ATOM     61  C   UNL     1       2.669   3.388  -7.610  1.00  0.00    +0.140 C 
ATOM     62  O   UNL     1       4.161   5.343  -7.668  1.00  0.00    -0.342 OA
ATOM     63  C   UNL     1       2.776   3.393  -6.071  1.00  0.00    +0.174 C 
ATOM     64  C   UNL     1       4.221   5.425  -6.235  1.00  0.00    +0.178 C 
ATOM     65  C   UNL     1       4.089   4.035  -5.612  1.00  0.00    +0.176 C 
BRANCH  61  66
ATOM     66  N   UNL     1       1.361   2.825  -8.000  1.00  0.00    -0.321 NA
ATOM     67  H   UNL     1       0.762   3.589  -8.341  1.00  0.00    +0.119 HD
ATOM     68  H   UNL     1       0.892   2.472  -7.152  1.00  0.00    +0.119 HD
ENDBRANCH  61  66
BRANCH  63  69
ATOM     69  O   UNL     1       2.767   2.044  -5.561  1.00  0.00    -0.343 OA
BRANCH  69  70
ATOM     70  C   UNL     1       3.662   1.185  -6.272  1.00  0.00    +0.270 C 
ATOM     71  C   UNL     1       4.671   0.552  -5.268  1.00  0.00    +0.139 C 
ATOM     72  O   UNL     1       2.882   0.220  -6.996  1.00  0.00    -0.342 OA
ATOM     73  C   UNL     1       5.097  -0.808  -5.829  1.00  0.00    +0.167 C 
ATOM     74  C   UNL     1       2.582  -0.953  -6.223  1.00  0.00    +0.178 C 
ATOM     75  C   UNL     1       3.880  -1.744  -5.929  1.00  0.00    +0.176 C 
BRANCH  71  76
ATOM     76  N   UNL     1       5.842   1.421  -4.980  1.00  0.00    -0.321 NA
ATOM     77  H   UNL     1       6.521   1.231  -5.726  1.00  0.00    +0.119 HD
ATOM     78  H   UNL     1       5.563   2.400  -5.152  1.00  0.00    +0.119 HD
ENDBRANCH  71  76
BRANCH  73  79
ATOM     79  O   UNL     1       6.096  -1.415  -4.992  1.00  0.00    -0.388 OA
ATOM     80  H   UNL     1       6.937  -1.288  -5.473  1.00  0.00    +0.211 HD
ENDBRANCH  73  79
BRANCH  74  81
ATOM     81  C   UNL     1       1.508  -1.757  -6.968  1.00  0.00    +0.191 C 
BRANCH  81  82
ATOM     82  O   UNL     1       1.268  -1.211  -8.269  1.00  0.00    -0.394 OA
ATOM     83  H   UNL     1       1.015  -1.956  -8.844  1.00  0.00    +0.210 HD
ENDBRANCH  81  82
ENDBRANCH  74  81
BRANCH  75  84
ATOM     84  O   UNL     1       4.214  -2.753  -6.892  1.00  0.00    -0.388 OA
ATOM     85  H   UNL     1       4.758  -2.319  -7.587  1.00  0.00    +0.211 HD
ENDBRANCH  75  84
ENDBRANCH  69  70
ENDBRANCH  63  69
BRANCH  64  86
ATOM     86  C   UNL     1       5.559   6.077  -5.875  1.00  0.00    +0.191 C 
BRANCH  86  87
ATOM     87  O   UNL     1       5.432   6.760  -4.623  1.00  0.00    -0.394 OA
ATOM     88  H   UNL     1       5.733   7.672  -4.807  1.00  0.00    +0.210 HD
ENDBRANCH  86  87
ENDBRANCH  64  86
BRANCH  65  89
ATOM     89  O   UNL     1       4.103   4.120  -4.182  1.00  0.00    -0.388 OA
ATOM     90  H   UNL     1       4.861   3.574  -3.892  1.00  0.00    +0.211 HD
ENDBRANCH  65  89
ENDBRANCH  59  60
ENDBRANCH   5  59
BRANCH   4  91
ATOM     91  N   UNL     1       3.410   4.985 -12.407  1.00  0.00    -0.321 NA
ATOM     92  H   UNL     1       3.133   4.000 -12.395  1.00  0.00    +0.119 HD
ATOM     93  H   UNL     1       3.777   5.189 -13.340  1.00  0.00    +0.119 HD
ENDBRANCH   4  91
TORSDOF 36
ENDMDL
MODEL 2
REMARK VINA RESULT:    -7.252      2.558      8.752
REMARK INTER + INTRA:         -23.829
REMARK INTER:                 -17.080
REMARK INTRA:                  -6.749
REMARK UNBOUND:                -5.555
REMARK SMILES N[C@@H]1[C@@H](O[C@@H]2[C@H](N)[C@H](O[C@@H]3O[C@H](CO)[C@@H](O)[C@H](O[C@@H]4O[C@@H](CO)[C@@H](O)[C@H](O)[C@H]4N)[C@H]3N)O[C@@H](CO[C@H]3O[C@@H](CO)[C@@H](O)[C@H](O)[C@H]3N)[C@H]2O[C@H]2O[C@@H](CO)[C@@H](O)[C@@H](O)[C@H]2N)O[C@H](CO)[C@H](O)[C@H]1O
REMARK SMILES IDX 33 1 47 2 5 3 6 4 8 5 32 6 34 7 35 8 36 9 38 10 41 11 37 12
REMARK SMILES IDX 43 13 45 14 39 15 40 16 42 18 44 20 46 22 48 25 49 26 58 27
REMARK SMILES IDX 50 28 56 29 51 30 54 31 59 32 57 35 52 37 53 38 55 40 4 42
REMARK SMILES IDX 3 43 2 44 60 45 66 46 61 47 64 48 1 49 67 52 62 54 63 55
REMARK SMILES IDX 65 57 9 59 10 60 30 61 11 62 17 63 12 64 15 65 31 66 18 69
REMARK SMILES IDX 19 70 28 71 20 72 26 73 21 74 24 75 29 76 27 79 22 81 23 82
REMARK SMILES IDX 25 84 13 86 14 87 16 89 7 91
REMARK H PARENT 40 17 42 19 44 21 46 23 46 24 59 33 59 34 57 36 53 39 55 41
REMARK H PARENT 1 50 1 51 67 53 63 56 65 58 31 67 31 68 29 77 29 78 27 80
REMARK H PARENT 23 83 25 85 14 88 16 90 7 92 7 93
ROOT
ATOM      1  C   UNL     1       4.418   7.313  -9.691  1.00  0.00    +0.179 C 
ATOM      2  C   UNL     1       5.577   7.735  -8.764  1.00  0.00    +0.183 C 
ATOM      3  C   UNL     1       6.928   7.702  -9.507  1.00  0.00    +0.175 C 
ATOM      4  C   UNL     1       6.828   8.513 -10.817  1.00  0.00    +0.140 C 
ATOM      5  C   UNL     1       5.641   7.966 -11.659  1.00  0.00    +0.273 C 
ATOM      6  O   UNL     1       4.427   8.058 -10.923  1.00  0.00    -0.342 OA
ENDROOT
BRANCH   1   7
ATOM      7  C   UNL     1       4.364   5.785  -9.937  1.00  0.00    +0.198 C 
BRANCH   7   8
ATOM      8  O   UNL     1       3.070   5.259  -9.623  1.00  0.00    -0.348 OA
BRANCH   8   9
ATOM      9  C   UNL     1       3.134   3.980  -8.975  1.00  0.00    +0.270 C 
ATOM     10  C   UNL     1       4.176   2.790  -7.148  1.00  0.00    +0.178 C 
ATOM     11  C   UNL     1       3.186   1.697  -7.586  1.00  0.00    +0.176 C 
ATOM     12  O   UNL     1       4.084   3.999  -7.913  1.00  0.00    -0.342 OA
ATOM     13  C   UNL     1       1.756   2.238  -7.740  1.00  0.00    +0.167 C 
ATOM     14  C   UNL     1       1.714   3.611  -8.448  1.00  0.00    +0.139 C 
BRANCH  10  15
ATOM     15  C   UNL     1       4.101   3.160  -5.658  1.00  0.00    +0.191 C 
BRANCH  15  16
ATOM     16  O   UNL     1       2.756   3.353  -5.228  1.00  0.00    -0.394 OA
ATOM     17  H   UNL     1       2.314   2.486  -5.276  1.00  0.00    +0.210 HD
ENDBRANCH  15  16
ENDBRANCH  10  15
BRANCH  11  18
ATOM     18  O   UNL     1       3.187   0.555  -6.722  1.00  0.00    -0.388 OA
ATOM     19  H   UNL     1       4.116   0.353  -6.508  1.00  0.00    +0.211 HD
ENDBRANCH  11  18
BRANCH  13  20
ATOM     20  O   UNL     1       1.002   1.273  -8.501  1.00  0.00    -0.388 OA
ATOM     21  H   UNL     1       1.440   0.418  -8.326  1.00  0.00    +0.211 HD
ENDBRANCH  13  20
BRANCH  14  22
ATOM     22  N   UNL     1       1.197   4.656  -7.513  1.00  0.00    -0.321 NA
ATOM     23  H   UNL     1       0.304   4.284  -7.150  1.00  0.00    +0.119 HD
ATOM     24  H   UNL     1       1.810   4.628  -6.678  1.00  0.00    +0.119 HD
ENDBRANCH  14  22
ENDBRANCH   8   9
ENDBRANCH   7   8
ENDBRANCH   1   7
BRANCH   2  25
ATOM     25  O   UNL     1       5.648   6.847  -7.634  1.00  0.00    -0.342 OA
BRANCH  25  26
ATOM     26  C   UNL     1       5.671   7.553  -6.387  1.00  0.00    +0.270 C 
ATOM     27  C   UNL     1       4.794   6.761  -5.366  1.00  0.00    +0.139 C 
ATOM     28  O   UNL     1       5.174   8.878  -6.555  1.00  0.00    -0.342 OA
ATOM     29  C   UNL     1       4.736   7.513  -4.007  1.00  0.00    +0.167 C 
ATOM     30  C   UNL     1       5.057   9.645  -5.349  1.00  0.00    +0.178 C 
ATOM     31  C   UNL     1       5.445   8.871  -4.071  1.00  0.00    +0.176 C 
BRANCH  27  32
ATOM     32  N   UNL     1       3.455   6.439  -5.927  1.00  0.00    -0.321 NA
ATOM     33  H   UNL     1       3.180   7.224  -6.527  1.00  0.00    +0.119 HD
ATOM     34  H   UNL     1       3.590   5.664  -6.581  1.00  0.00    +0.119 HD
ENDBRANCH  27  32
BRANCH  29  35
ATOM     35  O   UNL     1       3.392   7.737  -3.533  1.00  0.00    -0.388 OA
ATOM     36  H   UNL     1       3.378   8.681  -3.269  1.00  0.00    +0.211 HD
ENDBRANCH  29  35
BRANCH  30  37
ATOM     37  C   UNL     1       3.661  10.301  -5.320  1.00  0.00    +0.191 C 
BRANCH  37  38
ATOM     38  O   UNL     1       2.626   9.487  -5.869  1.00  0.00    -0.394 OA
ATOM     39  H   UNL     1       3.023   8.970  -6.607  1.00  0.00    +0.210 HD
ENDBRANCH  37  38
ENDBRANCH  30  37
BRANCH  31  40
ATOM     40  O   UNL     1       5.173   9.606  -2.874  1.00  0.00    -0.388 OA
ATOM     41  H   UNL     1       4.214   9.781  -2.842  1.00  0.00    +0.211 HD
ENDBRANCH  31  40
ENDBRANCH  25  26
ENDBRANCH   2  25
BRANCH   3  42
ATOM     42  O   UNL     1       7.943   8.192  -8.604  1.00  0.00    -0.343 OA
BRANCH  42  43
ATOM     43  C   UNL     1       9.079   7.331  -8.467  1.00  0.00    +0.270 C 
ATOM     44  C   UNL     1       9.936   7.888  -7.299  1.00  0.00    +0.139 C 
ATOM     45  O   UNL     1       9.791   7.327  -9.707  1.00  0.00    -0.342 OA
ATOM     46  C   UNL     1      11.304   7.191  -7.241  1.00  0.00    +0.167 C 
ATOM     47  C   UNL     1      11.042   6.631  -9.686  1.00  0.00    +0.178 C 
ATOM     48  C   UNL     1      11.976   7.222  -8.615  1.00  0.00    +0.176 C 
BRANCH  44  49
ATOM     49  N   UNL     1       9.244   7.751  -5.995  1.00  0.00    -0.321 NA
ATOM     50  H   UNL     1       8.242   7.674  -6.173  1.00  0.00    +0.119 HD
ATOM     51  H   UNL     1       9.386   8.629  -5.486  1.00  0.00    +0.119 HD
ENDBRANCH  44  49
BRANCH  46  52
ATOM     52  O   UNL     1      12.149   7.861  -6.288  1.00  0.00    -0.388 OA
ATOM     53  H   UNL     1      12.066   8.813  -6.500  1.00  0.00    +0.211 HD
ENDBRANCH  46  52
BRANCH  47  54
ATOM     54  C   UNL     1      10.843   5.106  -9.603  1.00  0.00    +0.191 C 
BRANCH  54  55
ATOM     55  O   UNL     1      12.076   4.427  -9.821  1.00  0.00    -0.394 OA
ATOM     56  H   UNL     1      12.092   3.663  -9.211  1.00  0.00    +0.210 HD
ENDBRANCH  54  55
ENDBRANCH  47  54
BRANCH  48  57
ATOM     57  O   UNL     1      13.250   6.573  -8.522  1.00  0.00    -0.388 OA
ATOM     58  H   UNL     1      13.869   7.044  -9.124  1.00  0.00    +0.211 HD
ENDBRANCH  48  57
ENDBRANCH  42  43
ENDBRANCH   3  42
BRANCH   5  59
ATOM     59  O   UNL     1       5.557   8.745 -12.854  1.00  0.00    -0.320 OA
BRANCH  59  60
ATOM     60  C   UNL     1       5.617   7.976 -14.056  1.00  0.00    +0.273 C 
ATOM     61  C   UNL     1       6.976   7.228 -14.193  1.00  0.00    +0.140 C 
ATOM     62  O   UNL     1       4.534   7.039 -13.957  1.00  0.00    -0.342 OA
ATOM     63  C   UNL     1       6.903   6.248 -15.383  1.00  0.00    +0.174 C 
ATOM     64  C   UNL     1       4.420   6.186 -15.108  1.00  0.00    +0.178 C 
ATOM     65  C   UNL     1       5.679   5.334 -15.270  1.00  0.00    +0.176 C 
BRANCH  61  66
ATOM     66  N   UNL     1       8.129   8.131 -14.382  1.00  0.00    -0.321 NA
ATOM     67  H   UNL     1       8.319   8.214 -15.389  1.00  0.00    +0.119 HD
ATOM     68  H   UNL     1       8.966   7.678 -13.984  1.00  0.00    +0.119 HD
ENDBRANCH  61  66
BRANCH  63  69
ATOM     69  O   UNL     1       8.066   5.395 -15.402  1.00  0.00    -0.343 OA
BRANCH  69  70
ATOM     70  C   UNL     1       8.202   4.630 -14.202  1.00  0.00    +0.270 C 
ATOM     71  C   UNL     1       8.388   3.128 -14.570  1.00  0.00    +0.139 C 
ATOM     72  O   UNL     1       9.288   5.178 -13.438  1.00  0.00    -0.342 OA
ATOM     73  C   UNL     1       9.214   2.472 -13.458  1.00  0.00    +0.167 C 
ATOM     74  C   UNL     1      10.562   4.612 -13.786  1.00  0.00    +0.178 C 
ATOM     75  C   UNL     1      10.609   3.117 -13.384  1.00  0.00    +0.176 C 
BRANCH  71  76
ATOM     76  N   UNL     1       7.106   2.411 -14.800  1.00  0.00    -0.321 NA
ATOM     77  H   UNL     1       6.491   3.084 -15.271  1.00  0.00    +0.119 HD
ATOM     78  H   UNL     1       7.269   1.689 -15.519  1.00  0.00    +0.119 HD
ENDBRANCH  71  76
BRANCH  73  79
ATOM     79  O   UNL     1       9.354   1.060 -13.690  1.00  0.00    -0.388 OA
ATOM     80  H   UNL     1      10.314   0.917 -13.796  1.00  0.00    +0.211 HD
ENDBRANCH  73  79
BRANCH  74  81
ATOM     81  C   UNL     1      11.661   5.472 -13.147  1.00  0.00    +0.191 C 
BRANCH  81  82
ATOM     82  O   UNL     1      11.326   6.861 -13.210  1.00  0.00    -0.394 OA
ATOM     83  H   UNL     1      10.584   7.000 -12.594  1.00  0.00    +0.210 HD
ENDBRANCH  81  82
ENDBRANCH  74  81
BRANCH  75  84
ATOM     84  O   UNL     1      11.116   2.852 -12.069  1.00  0.00    -0.388 OA
ATOM     85  H   UNL     1      11.727   2.085 -12.145  1.00  0.00    +0.211 HD
ENDBRANCH  75  84
ENDBRANCH  69  70
ENDBRANCH  63  69
BRANCH  64  86
ATOM     86  C   UNL     1       3.176   5.317 -14.906  1.00  0.00    +0.191 C 
BRANCH  86  87
ATOM     87  O   UNL     1       2.556   5.076 -16.174  1.00  0.00    -0.394 OA
ATOM     88  H   UNL     1       1.635   4.829 -15.956  1.00  0.00    +0.210 HD
ENDBRANCH  86  87
ENDBRANCH  64  86
BRANCH  65  89
ATOM     89  O   UNL     1       5.587   4.516 -16.443  1.00  0.00    -0.388 OA
ATOM     90  H   UNL     1       5.164   5.078 -17.124  1.00  0.00    +0.211 HD
ENDBRANCH  65  89
ENDBRANCH  59  60
ENDBRANCH   5  59
BRANCH   4  91
ATOM     91  N   UNL     1       6.708   9.966 -10.535  1.00  0.00    -0.321 NA
ATOM     92  H   UNL     1       5.902  10.318 -11.056  1.00  0.00    +0.119 HD
ATOM     93  H   UNL     1       7.541  10.425 -10.910  1.00  0.00    +0.119 HD
ENDBRANCH   4  91
TORSDOF 36
ENDMDL
MODEL 3
REMARK VINA RESULT:    -7.138     11.697     19.616
REMARK INTER + INTRA:         -23.542
REMARK INTER:                 -17.639
REMARK INTRA:                  -5.903
REMARK UNBOUND:                -5.555
REMARK SMILES N[C@@H]1[C@@H](O[C@@H]2[C@H](N)[C@H](O[C@@H]3O[C@H](CO)[C@@H](O)[C@H](O[C@@H]4O[C@@H](CO)[C@@H](O)[C@H](O)[C@H]4N)[C@H]3N)O[C@@H](CO[C@H]3O[C@@H](CO)[C@@H](O)[C@H](O)[C@H]3N)[C@H]2O[C@H]2O[C@@H](CO)[C@@H](O)[C@@H](O)[C@H]2N)O[C@H](CO)[C@H](O)[C@H]1O
REMARK SMILES IDX 33 1 47 2 5 3 6 4 8 5 32 6 34 7 35 8 36 9 38 10 41 11 37 12
REMARK SMILES IDX 43 13 45 14 39 15 40 16 42 18 44 20 46 22 48 25 49 26 58 27
REMARK SMILES IDX 50 28 56 29 51 30 54 31 59 32 57 35 52 37 53 38 55 40 4 42
REMARK SMILES IDX 3 43 2 44 60 45 66 46 61 47 64 48 1 49 67 52 62 54 63 55
REMARK SMILES IDX 65 57 9 59 10 60 30 61 11 62 17 63 12 64 15 65 31 66 18 69
REMARK SMILES IDX 19 70 28 71 20 72 26 73 21 74 24 75 29 76 27 79 22 81 23 82
REMARK SMILES IDX 25 84 13 86 14 87 16 89 7 91
REMARK H PARENT 40 17 42 19 44 21 46 23 46 24 59 33 59 34 57 36 53 39 55 41
REMARK H PARENT 1 50 1 51 67 53 63 56 65 58 31 67 31 68 29 77 29 78 27 80
REMARK H PARENT 23 83 25 85 14 88 16 90 7 92 7 93
ROOT
ATOM      1  C   UNL     1      -2.929 -10.290  -6.120  1.00  0.00    +0.179 C 
ATOM      2  C   UNL     1      -3.736 -10.062  -7.415  1.00  0.00    +0.183 C 
ATOM      3  C   UNL     1      -5.129  -9.473  -7.110  1.00  0.00    +0.175 C 
ATOM      4  C   UNL     1      -4.988  -8.222  -6.216  1.00  0.00    +0.140 C 
ATOM      5  C   UNL     1      -4.180  -8.603  -4.943  1.00  0.00    +0.273 C 
ATOM      6  O   UNL     1      -2.899  -9.107  -5.300  1.00  0.00    -0.342 OA
ENDROOT
BRANCH   1   7
ATOM      7  C   UNL     1      -3.397 -11.534  -5.326  1.00  0.00    +0.198 C 
BRANCH   7   8
ATOM      8  O   UNL     1      -2.286 -12.209  -4.727  1.00  0.00    -0.348 OA
BRANCH   8   9
ATOM      9  C   UNL     1      -1.847 -11.581  -3.512  1.00  0.00    +0.270 C 
ATOM     10  C   UNL     1      -2.634 -10.420  -1.545  1.00  0.00    +0.178 C 
ATOM     11  C   UNL     1      -1.156 -10.557  -1.143  1.00  0.00    +0.176 C 
ATOM     12  O   UNL     1      -2.950 -11.010  -2.813  1.00  0.00    -0.342 OA
ATOM     13  C   UNL     1      -0.640 -11.993  -1.314  1.00  0.00    +0.167 C 
ATOM     14  C   UNL     1      -1.118 -12.642  -2.633  1.00  0.00    +0.139 C 
BRANCH  10  15
ATOM     15  C   UNL     1      -3.633 -10.957  -0.506  1.00  0.00    +0.191 C 
BRANCH  15  16
ATOM     16  O   UNL     1      -3.796 -10.055   0.585  1.00  0.00    -0.394 OA
ATOM     17  H   UNL     1      -2.964  -9.556   0.670  1.00  0.00    +0.210 HD
ENDBRANCH  15  16
ENDBRANCH  10  15
BRANCH  11  18
ATOM     18  O   UNL     1      -0.887 -10.096   0.187  1.00  0.00    -0.388 OA
ATOM     19  H   UNL     1      -0.038  -9.619   0.163  1.00  0.00    +0.211 HD
ENDBRANCH  11  18
BRANCH  13  20
ATOM     20  O   UNL     1       0.802 -11.948  -1.287  1.00  0.00    -0.388 OA
ATOM     21  H   UNL     1       1.045 -11.301  -1.976  1.00  0.00    +0.211 HD
ENDBRANCH  13  20
BRANCH  14  22
ATOM     22  N   UNL     1      -2.009 -13.806  -2.340  1.00  0.00    -0.321 NA
ATOM     23  H   UNL     1      -1.450 -14.645  -2.564  1.00  0.00    +0.119 HD
ATOM     24  H   UNL     1      -2.090 -13.857  -1.309  1.00  0.00    +0.119 HD
ENDBRANCH  14  22
ENDBRANCH   8   9
ENDBRANCH   7   8
ENDBRANCH   1   7
BRANCH   2  25
ATOM     25  O   UNL     1      -3.904 -11.309  -8.114  1.00  0.00    -0.342 OA
BRANCH  25  26
ATOM     26  C   UNL     1      -2.954 -11.471  -9.174  1.00  0.00    +0.270 C 
ATOM     27  C   UNL     1      -2.444 -12.946  -9.147  1.00  0.00    +0.139 C 
ATOM     28  O   UNL     1      -1.869 -10.560  -9.015  1.00  0.00    -0.342 OA
ATOM     29  C   UNL     1      -1.366 -13.166 -10.245  1.00  0.00    +0.167 C 
ATOM     30  C   UNL     1      -0.806 -10.704  -9.968  1.00  0.00    +0.178 C 
ATOM     31  C   UNL     1      -1.010 -11.861 -10.968  1.00  0.00    +0.176 C 
BRANCH  27  32
ATOM     32  N   UNL     1      -2.001 -13.348  -7.786  1.00  0.00    -0.321 NA
ATOM     33  H   UNL     1      -1.272 -12.687  -7.496  1.00  0.00    +0.119 HD
ATOM     34  H   UNL     1      -2.779 -13.150  -7.153  1.00  0.00    +0.119 HD
ENDBRANCH  27  32
BRANCH  29  35
ATOM     35  O   UNL     1      -0.143 -13.739  -9.739  1.00  0.00    -0.388 OA
ATOM     36  H   UNL     1      -0.105 -13.452  -8.802  1.00  0.00    +0.211 HD
ENDBRANCH  29  35
BRANCH  30  37
ATOM     37  C   UNL     1       0.535 -10.724  -9.205  1.00  0.00    +0.191 C 
BRANCH  37  38
ATOM     38  O   UNL     1       0.463 -11.345  -7.924  1.00  0.00    -0.394 OA
ATOM     39  H   UNL     1       0.941 -12.204  -7.989  1.00  0.00    +0.210 HD
ENDBRANCH  37  38
ENDBRANCH  30  37
BRANCH  31  40
ATOM     40  O   UNL     1       0.131 -12.078 -11.805  1.00  0.00    -0.388 OA
ATOM     41  H   UNL     1       0.389 -11.217 -12.187  1.00  0.00    +0.211 HD
ENDBRANCH  31  40
ENDBRANCH  25  26
ENDBRANCH   2  25
BRANCH   3  42
ATOM     42  O   UNL     1      -5.783  -9.207  -8.370  1.00  0.00    -0.343 OA
BRANCH  42  43
ATOM     43  C   UNL     1      -6.686 -10.234  -8.797  1.00  0.00    +0.270 C 
ATOM     44  C   UNL     1      -6.910 -10.041 -10.320  1.00  0.00    +0.139 C 
ATOM     45  O   UNL     1      -7.899 -10.104  -8.050  1.00  0.00    -0.342 OA
ATOM     46  C   UNL     1      -8.059 -10.927 -10.823  1.00  0.00    +0.167 C 
ATOM     47  C   UNL     1      -8.963 -10.966  -8.468  1.00  0.00    +0.178 C 
ATOM     48  C   UNL     1      -9.302 -10.733  -9.951  1.00  0.00    +0.176 C 
BRANCH  44  49
ATOM     49  N   UNL     1      -5.679 -10.323 -11.098  1.00  0.00    -0.321 NA
ATOM     50  H   UNL     1      -5.950 -10.520 -12.062  1.00  0.00    +0.119 HD
ATOM     51  H   UNL     1      -5.278 -11.187 -10.721  1.00  0.00    +0.119 HD
ENDBRANCH  44  49
BRANCH  46  52
ATOM     52  O   UNL     1      -8.379 -10.582 -12.183  1.00  0.00    -0.388 OA
ATOM     53  H   UNL     1      -7.514 -10.449 -12.621  1.00  0.00    +0.211 HD
ENDBRANCH  46  52
BRANCH  47  54
ATOM     54  C   UNL     1      -8.689 -12.433  -8.089  1.00  0.00    +0.191 C 
BRANCH  54  55
ATOM     55  O   UNL     1      -9.893 -13.193  -8.122  1.00  0.00    -0.394 OA
ATOM     56  H   UNL     1     -10.633 -12.555  -8.162  1.00  0.00    +0.210 HD
ENDBRANCH  54  55
ENDBRANCH  47  54
BRANCH  48  57
ATOM     57  O   UNL     1     -10.354 -11.565 -10.453  1.00  0.00    -0.388 OA
ATOM     58  H   UNL     1     -10.862 -11.040 -11.111  1.00  0.00    +0.211 HD
ENDBRANCH  48  57
ENDBRANCH  42  43
ENDBRANCH   3  42
BRANCH   5  59
ATOM     59  O   UNL     1      -4.045  -7.426  -4.143  1.00  0.00    -0.320 OA
BRANCH  59  60
ATOM     60  C   UNL     1      -2.714  -7.181  -3.685  1.00  0.00    +0.273 C 
ATOM     61  C   UNL     1      -2.049  -6.004  -4.455  1.00  0.00    +0.140 C 
ATOM     62  O   UNL     1      -2.850  -6.860  -2.292  1.00  0.00    -0.342 OA
ATOM     63  C   UNL     1      -0.710  -5.640  -3.779  1.00  0.00    +0.174 C 
ATOM     64  C   UNL     1      -1.591  -6.606  -1.648  1.00  0.00    +0.178 C 
ATOM     65  C   UNL     1      -0.901  -5.396  -2.278  1.00  0.00    +0.176 C 
BRANCH  61  66
ATOM     66  N   UNL     1      -1.803  -6.297  -5.881  1.00  0.00    -0.321 NA
ATOM     67  H   UNL     1      -1.099  -5.637  -6.236  1.00  0.00    +0.119 HD
ATOM     68  H   UNL     1      -2.663  -6.086  -6.411  1.00  0.00    +0.119 HD
ENDBRANCH  61  66
BRANCH  63  69
ATOM     69  O   UNL     1      -0.178  -4.423  -4.339  1.00  0.00    -0.343 OA
BRANCH  69  70
ATOM     70  C   UNL     1       0.658  -4.663  -5.474  1.00  0.00    +0.270 C 
ATOM     71  C   UNL     1       1.475  -3.375  -5.789  1.00  0.00    +0.139 C 
ATOM     72  O   UNL     1       1.473  -5.813  -5.199  1.00  0.00    -0.342 OA
ATOM     73  C   UNL     1       2.791  -3.805  -6.447  1.00  0.00    +0.167 C 
ATOM     74  C   UNL     1       2.701  -5.485  -4.530  1.00  0.00    +0.178 C 
ATOM     75  C   UNL     1       3.616  -4.660  -5.469  1.00  0.00    +0.176 C 
BRANCH  71  76
ATOM     76  N   UNL     1       0.735  -2.395  -6.628  1.00  0.00    -0.321 NA
ATOM     77  H   UNL     1       0.963  -1.471  -6.245  1.00  0.00    +0.119 HD
ATOM     78  H   UNL     1       1.173  -2.382  -7.563  1.00  0.00    +0.119 HD
ENDBRANCH  71  76
BRANCH  73  79
ATOM     79  O   UNL     1       3.562  -2.659  -6.844  1.00  0.00    -0.388 OA
ATOM     80  H   UNL     1       2.947  -2.112  -7.369  1.00  0.00    +0.211 HD
ENDBRANCH  73  79
BRANCH  74  81
ATOM     81  C   UNL     1       3.333  -6.786  -4.018  1.00  0.00    +0.191 C 
BRANCH  81  82
ATOM     82  O   UNL     1       4.737  -6.623  -3.797  1.00  0.00    -0.394 OA
ATOM     83  H   UNL     1       5.107  -7.515  -3.670  1.00  0.00    +0.210 HD
ENDBRANCH  81  82
ENDBRANCH  74  81
BRANCH  75  84
ATOM     84  O   UNL     1       4.529  -5.428  -6.263  1.00  0.00    -0.388 OA
ATOM     85  H   UNL     1       4.038  -6.217  -6.585  1.00  0.00    +0.211 HD
ENDBRANCH  75  84
ENDBRANCH  69  70
ENDBRANCH  63  69
BRANCH  64  86
ATOM     86  C   UNL     1      -1.880  -6.377  -0.162  1.00  0.00    +0.191 C 
BRANCH  86  87
ATOM     87  O   UNL     1      -2.276  -7.615   0.440  1.00  0.00    -0.394 OA
ATOM     88  H   UNL     1      -1.441  -8.112   0.554  1.00  0.00    +0.210 HD
ENDBRANCH  86  87
ENDBRANCH  64  86
BRANCH  65  89
ATOM     89  O   UNL     1       0.376  -5.169  -1.668  1.00  0.00    -0.388 OA
ATOM     90  H   UNL     1       0.604  -6.006  -1.214  1.00  0.00    +0.211 HD
ENDBRANCH  65  89
ENDBRANCH  59  60
ENDBRANCH   5  59
BRANCH   4  91
ATOM     91  N   UNL     1      -4.375  -7.098  -6.968  1.00  0.00    -0.321 NA
ATOM     92  H   UNL     1      -4.791  -7.085  -7.902  1.00  0.00    +0.119 HD
ATOM     93  H   UNL     1      -3.379  -7.304  -7.078  1.00  0.00    +0.119 HD
ENDBRANCH   4  91
TORSDOF 36
ENDMDL
MODEL 4
REMARK VINA RESULT:    -6.977     14.822     20.703
REMARK INTER + INTRA:         -23.138
REMARK INTER:                 -16.961
REMARK INTRA:                  -6.177
REMARK UNBOUND:                -5.555
REMARK SMILES N[C@@H]1[C@@H](O[C@@H]2[C@H](N)[C@H](O[C@@H]3O[C@H](CO)[C@@H](O)[C@H](O[C@@H]4O[C@@H](CO)[C@@H](O)[C@H](O)[C@H]4N)[C@H]3N)O[C@@H](CO[C@H]3O[C@@H](CO)[C@@H](O)[C@H](O)[C@H]3N)[C@H]2O[C@H]2O[C@@H](CO)[C@@H](O)[C@@H](O)[C@H]2N)O[C@H](CO)[C@H](O)[C@H]1O
REMARK SMILES IDX 33 1 47 2 5 3 6 4 8 5 32 6 34 7 35 8 36 9 38 10 41 11 37 12
REMARK SMILES IDX 43 13 45 14 39 15 40 16 42 18 44 20 46 22 48 25 49 26 58 27
REMARK SMILES IDX 50 28 56 29 51 30 54 31 59 32 57 35 52 37 53 38 55 40 4 42
REMARK SMILES IDX 3 43 2 44 60 45 66 46 61 47 64 48 1 49 67 52 62 54 63 55
REMARK SMILES IDX 65 57 9 59 10 60 30 61 11 62 17 63 12 64 15 65 31 66 18 69
REMARK SMILES IDX 19 70 28 71 20 72 26 73 21 74 24 75 29 76 27 79 22 81 23 82
REMARK SMILES IDX 25 84 13 86 14 87 16 89 7 91
REMARK H PARENT 40 17 42 19 44 21 46 23 46 24 59 33 59 34 57 36 53 39 55 41
REMARK H PARENT 1 50 1 51 67 53 63 56 65 58 31 67 31 68 29 77 29 78 27 80
REMARK H PARENT 23 83 25 85 14 88 16 90 7 92 7 93
ROOT
ATOM      1  C   UNL     1      -4.617  -8.453  -5.881  1.00  0.00    +0.179 C 
ATOM      2  C   UNL     1      -5.853  -9.366  -5.739  1.00  0.00    +0.183 C 
ATOM      3  C   UNL     1      -6.095  -9.754  -4.266  1.00  0.00    +0.175 C 
ATOM      4  C   UNL     1      -6.133  -8.486  -3.386  1.00  0.00    +0.140 C 
ATOM      5  C   UNL     1      -4.822  -7.679  -3.611  1.00  0.00    +0.273 C 
ATOM      6  O   UNL     1      -4.683  -7.330  -4.982  1.00  0.00    -0.342 OA
ENDROOT
BRANCH   1   7
ATOM      7  C   UNL     1      -3.278  -9.220  -5.755  1.00  0.00    +0.198 C 
BRANCH   7   8
ATOM      8  O   UNL     1      -2.507  -9.108  -6.955  1.00  0.00    -0.348 OA
BRANCH   8   9
ATOM      9  C   UNL     1      -1.766 -10.302  -7.250  1.00  0.00    +0.270 C 
ATOM     10  C   UNL     1      -2.010 -12.609  -7.926  1.00  0.00    +0.178 C 
ATOM     11  C   UNL     1      -0.477 -12.519  -8.000  1.00  0.00    +0.176 C 
ATOM     12  O   UNL     1      -2.648 -11.383  -7.543  1.00  0.00    -0.342 OA
ATOM     13  C   UNL     1      -0.006 -11.291  -8.794  1.00  0.00    +0.167 C 
ATOM     14  C   UNL     1      -0.813 -10.018  -8.451  1.00  0.00    +0.139 C 
BRANCH  10  15
ATOM     15  C   UNL     1      -2.685 -13.117  -9.210  1.00  0.00    +0.191 C 
BRANCH  15  16
ATOM     16  O   UNL     1      -3.251 -12.050  -9.967  1.00  0.00    -0.394 OA
ATOM     17  H   UNL     1      -4.136 -12.341 -10.253  1.00  0.00    +0.210 HD
ENDBRANCH  15  16
ENDBRANCH  10  15
BRANCH  11  18
ATOM     18  O   UNL     1       0.133 -13.705  -8.525  1.00  0.00    -0.388 OA
ATOM     19  H   UNL     1      -0.575 -14.361  -8.658  1.00  0.00    +0.211 HD
ENDBRANCH  11  18
BRANCH  13  20
ATOM     20  O   UNL     1       1.388 -11.082  -8.492  1.00  0.00    -0.388 OA
ATOM     21  H   UNL     1       1.723 -11.961  -8.229  1.00  0.00    +0.211 HD
ENDBRANCH  13  20
BRANCH  14  22
ATOM     22  N   UNL     1      -1.576  -9.555  -9.649  1.00  0.00    -0.321 NA
ATOM     23  H   UNL     1      -2.557  -9.830  -9.475  1.00  0.00    +0.119 HD
ATOM     24  H   UNL     1      -1.618  -8.522  -9.586  1.00  0.00    +0.119 HD
ENDBRANCH  14  22
ENDBRANCH   8   9
ENDBRANCH   7   8
ENDBRANCH   1   7
BRANCH   2  25
ATOM     25  O   UNL     1      -5.665 -10.567  -6.509  1.00  0.00    -0.342 OA
BRANCH  25  26
ATOM     26  C   UNL     1      -6.064 -10.405  -7.876  1.00  0.00    +0.270 C 
ATOM     27  C   UNL     1      -7.517  -9.833  -7.892  1.00  0.00    +0.139 C 
ATOM     28  O   UNL     1      -6.008 -11.652  -8.563  1.00  0.00    -0.342 OA
ATOM     29  C   UNL     1      -8.025  -9.688  -9.354  1.00  0.00    +0.167 C 
ATOM     30  C   UNL     1      -6.484 -11.627  -9.916  1.00  0.00    +0.178 C 
ATOM     31  C   UNL     1      -7.023 -10.254 -10.368  1.00  0.00    +0.176 C 
BRANCH  27  32
ATOM     32  N   UNL     1      -8.426 -10.621  -7.019  1.00  0.00    -0.321 NA
ATOM     33  H   UNL     1      -9.325 -10.698  -7.508  1.00  0.00    +0.119 HD
ATOM     34  H   UNL     1      -8.068 -11.579  -7.011  1.00  0.00    +0.119 HD
ENDBRANCH  27  32
BRANCH  29  35
ATOM     35  O   UNL     1      -9.297 -10.329  -9.584  1.00  0.00    -0.388 OA
ATOM     36  H   UNL     1      -9.083 -11.284  -9.651  1.00  0.00    +0.211 HD
ENDBRANCH  29  35
BRANCH  30  37
ATOM     37  C   UNL     1      -7.453 -12.810 -10.115  1.00  0.00    +0.191 C 
BRANCH  37  38
ATOM     38  O   UNL     1      -7.404 -13.387 -11.419  1.00  0.00    -0.394 OA
ATOM     39  H   UNL     1      -8.334 -13.536 -11.706  1.00  0.00    +0.210 HD
ENDBRANCH  37  38
ENDBRANCH  30  37
BRANCH  31  40
ATOM     40  O   UNL     1      -7.630 -10.295 -11.663  1.00  0.00    -0.388 OA
ATOM     41  H   UNL     1      -7.033  -9.840 -12.287  1.00  0.00    +0.211 HD
ENDBRANCH  31  40
ENDBRANCH  25  26
ENDBRANCH   2  25
BRANCH   3  42
ATOM     42  O   UNL     1      -7.312 -10.530  -4.206  1.00  0.00    -0.343 OA
BRANCH  42  43
ATOM     43  C   UNL     1      -7.279 -11.610  -3.266  1.00  0.00    +0.270 C 
ATOM     44  C   UNL     1      -7.878 -11.078  -1.937  1.00  0.00    +0.139 C 
ATOM     45  O   UNL     1      -5.921 -12.034  -3.116  1.00  0.00    -0.342 OA
ATOM     46  C   UNL     1      -7.650 -12.076  -0.793  1.00  0.00    +0.167 C 
ATOM     47  C   UNL     1      -5.700 -13.009  -2.092  1.00  0.00    +0.178 C 
ATOM     48  C   UNL     1      -6.177 -12.483  -0.726  1.00  0.00    +0.176 C 
BRANCH  44  49
ATOM     49  N   UNL     1      -9.326 -10.780  -2.067  1.00  0.00    -0.321 NA
ATOM     50  H   UNL     1      -9.741 -10.814  -1.136  1.00  0.00    +0.119 HD
ATOM     51  H   UNL     1      -9.742 -11.547  -2.604  1.00  0.00    +0.119 HD
ENDBRANCH  44  49
BRANCH  46  52
ATOM     52  O   UNL     1      -8.030 -11.474   0.459  1.00  0.00    -0.388 OA
ATOM     53  H   UNL     1      -7.192 -11.370   0.954  1.00  0.00    +0.211 HD
ENDBRANCH  46  52
BRANCH  47  54
ATOM     54  C   UNL     1      -6.263 -14.388  -2.487  1.00  0.00    +0.191 C 
BRANCH  54  55
ATOM     55  O   UNL     1      -5.719 -14.813  -3.732  1.00  0.00    -0.394 OA
ATOM     56  H   UNL     1      -4.986 -14.203  -3.947  1.00  0.00    +0.210 HD
ENDBRANCH  54  55
ENDBRANCH  47  54
BRANCH  48  57
ATOM     57  O   UNL     1      -5.999 -13.405   0.355  1.00  0.00    -0.388 OA
ATOM     58  H   UNL     1      -5.731 -14.269  -0.030  1.00  0.00    +0.211 HD
ENDBRANCH  48  57
ENDBRANCH  42  43
ENDBRANCH   3  42
BRANCH   5  59
ATOM     59  O   UNL     1      -4.890  -6.502  -2.803  1.00  0.00    -0.320 OA
BRANCH  59  60
ATOM     60  C   UNL     1      -3.619  -6.023  -2.362  1.00  0.00    +0.273 C 
ATOM     61  C   UNL     1      -2.738  -7.173  -1.791  1.00  0.00    +0.140 C 
ATOM     62  O   UNL     1      -3.008  -5.452  -3.529  1.00  0.00    -0.342 OA
ATOM     63  C   UNL     1      -1.310  -6.647  -1.538  1.00  0.00    +0.174 C 
ATOM     64  C   UNL     1      -1.712  -4.888  -3.267  1.00  0.00    +0.178 C 
ATOM     65  C   UNL     1      -0.743  -5.969  -2.790  1.00  0.00    +0.176 C 
BRANCH  61  66
ATOM     66  N   UNL     1      -3.266  -7.753  -0.540  1.00  0.00    -0.321 NA
ATOM     67  H   UNL     1      -3.843  -8.572  -0.775  1.00  0.00    +0.119 HD
ATOM     68  H   UNL     1      -3.918  -7.076  -0.116  1.00  0.00    +0.119 HD
ENDBRANCH  61  66
BRANCH  63  69
ATOM     69  O   UNL     1      -0.423  -7.737  -1.212  1.00  0.00    -0.343 OA
BRANCH  69  70
ATOM     70  C   UNL     1      -0.296  -8.677  -2.281  1.00  0.00    +0.270 C 
ATOM     71  C   UNL     1       1.173  -9.193  -2.336  1.00  0.00    +0.139 C 
ATOM     72  O   UNL     1      -1.268  -9.715  -2.088  1.00  0.00    -0.342 OA
ATOM     73  C   UNL     1       1.148 -10.613  -2.914  1.00  0.00    +0.167 C 
ATOM     74  C   UNL     1      -0.788 -10.789  -1.263  1.00  0.00    +0.178 C 
ATOM     75  C   UNL     1       0.353 -11.548  -1.986  1.00  0.00    +0.176 C 
BRANCH  71  76
ATOM     76  N   UNL     1       2.085  -8.304  -3.101  1.00  0.00    -0.321 NA
ATOM     77  H   UNL     1       2.122  -7.422  -2.576  1.00  0.00    +0.119 HD
ATOM     78  H   UNL     1       3.043  -8.677  -3.012  1.00  0.00    +0.119 HD
ENDBRANCH  71  76
BRANCH  73  79
ATOM     79  O   UNL     1       2.482 -11.123  -3.073  1.00  0.00    -0.388 OA
ATOM     80  H   UNL     1       2.433 -12.052  -2.777  1.00  0.00    +0.211 HD
ENDBRANCH  73  79
BRANCH  74  81
ATOM     81  C   UNL     1      -1.983 -11.669  -0.874  1.00  0.00    +0.191 C 
BRANCH  81  82
ATOM     82  O   UNL     1      -2.851 -10.984   0.033  1.00  0.00    -0.394 OA
ATOM     83  H   UNL     1      -2.524 -11.173   0.932  1.00  0.00    +0.210 HD
ENDBRANCH  81  82
ENDBRANCH  74  81
BRANCH  75  84
ATOM     84  O   UNL     1      -0.065 -12.663  -2.785  1.00  0.00    -0.388 OA
ATOM     85  H   UNL     1      -0.739 -13.155  -2.264  1.00  0.00    +0.211 HD
ENDBRANCH  75  84
ENDBRANCH  69  70
ENDBRANCH  63  69
BRANCH  64  86
ATOM     86  C   UNL     1      -1.232  -4.237  -4.567  1.00  0.00    +0.191 C 
BRANCH  86  87
ATOM     87  O   UNL     1      -2.317  -4.180  -5.499  1.00  0.00    -0.394 OA
ATOM     88  H   UNL     1      -2.605  -3.246  -5.487  1.00  0.00    +0.210 HD
ENDBRANCH  86  87
ENDBRANCH  64  86
BRANCH  65  89
ATOM     89  O   UNL     1       0.536  -5.400  -2.484  1.00  0.00    -0.388 OA
ATOM     90  H   UNL     1       0.929  -5.985  -1.804  1.00  0.00    +0.211 HD
ENDBRANCH  65  89
ENDBRANCH  59  60
ENDBRANCH   5  59
BRANCH   4  91
ATOM     91  N   UNL     1      -7.352  -7.685  -3.661  1.00  0.00    -0.321 NA
ATOM     92  H   UNL     1      -7.422  -7.562  -4.674  1.00  0.00    +0.119 HD
ATOM     93  H   UNL     1      -7.215  -6.759  -3.248  1.00  0.00    +0.119 HD
ENDBRANCH   4  91
TORSDOF 36
ENDMDL
MODEL 5
REMARK VINA RESULT:    -6.867      2.611      8.786
REMARK INTER + INTRA:         -22.860
REMARK INTER:                 -16.450
REMARK INTRA:                  -6.410
REMARK UNBOUND:                -5.555
REMARK SMILES N[C@@H]1[C@@H](O[C@@H]2[C@H](N)[C@H](O[C@@H]3O[C@H](CO)[C@@H](O)[C@H](O[C@@H]4O[C@@H](CO)[C@@H](O)[C@H](O)[C@H]4N)[C@H]3N)O[C@@H](CO[C@H]3O[C@@H](CO)[C@@H](O)[C@H](O)[C@H]3N)[C@H]2O[C@H]2O[C@@H](CO)[C@@H](O)[C@@H](O)[C@H]2N)O[C@H](CO)[C@H](O)[C@H]1O
REMARK SMILES IDX 33 1 47 2 5 3 6 4 8 5 32 6 34 7 35 8 36 9 38 10 41 11 37 12
REMARK SMILES IDX 43 13 45 14 39 15 40 16 42 18 44 20 46 22 48 25 49 26 58 27
REMARK SMILES IDX 50 28 56 29 51 30 54 31 59 32 57 35 52 37 53 38 55 40 4 42
REMARK SMILES IDX 3 43 2 44 60 45 66 46 61 47 64 48 1 49 67 52 62 54 63 55
REMARK SMILES IDX 65 57 9 59 10 60 30 61 11 62 17 63 12 64 15 65 31 66 18 69
REMARK SMILES IDX 19 70 28 71 20 72 26 73 21 74 24 75 29 76 27 79 22 81 23 82
REMARK SMILES IDX 25 84 13 86 14 87 16 89 7 91
REMARK H PARENT 40 17 42 19 44 21 46 23 46 24 59 33 59 34 57 36 53 39 55 41
REMARK H PARENT 1 50 1 51 67 53 63 56 65 58 31 67 31 68 29 77 29 78 27 80
REMARK H PARENT 23 83 25 85 14 88 16 90 7 92 7 93
ROOT
ATOM      1  C   UNL     1       4.083   8.318  -9.532  1.00  0.00    +0.179 C 
ATOM      2  C   UNL     1       4.931   9.302  -8.699  1.00  0.00    +0.183 C 
ATOM      3  C   UNL     1       6.273   9.611  -9.393  1.00  0.00    +0.175 C 
ATOM      4  C   UNL     1       6.023  10.057 -10.850  1.00  0.00    +0.140 C 
ATOM      5  C   UNL     1       5.184   8.965 -11.573  1.00  0.00    +0.273 C 
ATOM      6  O   UNL     1       3.950   8.758 -10.896  1.00  0.00    -0.342 OA
ENDROOT
BRANCH   1   7
ATOM      7  C   UNL     1       4.586   6.857  -9.439  1.00  0.00    +0.198 C 
BRANCH   7   8
ATOM      8  O   UNL     1       3.591   5.940  -9.906  1.00  0.00    -0.348 OA
BRANCH   8   9
ATOM      9  C   UNL     1       3.410   4.822  -9.024  1.00  0.00    +0.270 C 
ATOM     10  C   UNL     1       3.811   4.058  -6.767  1.00  0.00    +0.178 C 
ATOM     11  C   UNL     1       2.958   2.874  -7.252  1.00  0.00    +0.176 C 
ATOM     12  O   UNL     1       3.998   5.083  -7.753  1.00  0.00    -0.342 OA
ATOM     13  C   UNL     1       1.661   3.335  -7.934  1.00  0.00    +0.167 C 
ATOM     14  C   UNL     1       1.885   4.532  -8.885  1.00  0.00    +0.139 C 
BRANCH  10  15
ATOM     15  C   UNL     1       3.308   4.724  -5.475  1.00  0.00    +0.191 C 
BRANCH  15  16
ATOM     16  O   UNL     1       1.895   4.601  -5.334  1.00  0.00    -0.394 OA
ATOM     17  H   UNL     1       1.528   5.503  -5.334  1.00  0.00    +0.210 HD
ENDBRANCH  15  16
ENDBRANCH  10  15
BRANCH  11  18
ATOM     18  O   UNL     1       2.657   1.933  -6.214  1.00  0.00    -0.388 OA
ATOM     19  H   UNL     1       3.506   1.624  -5.847  1.00  0.00    +0.211 HD
ENDBRANCH  11  18
BRANCH  13  20
ATOM     20  O   UNL     1       1.134   2.215  -8.674  1.00  0.00    -0.388 OA
ATOM     21  H   UNL     1       0.281   2.530  -9.030  1.00  0.00    +0.211 HD
ENDBRANCH  13  20
BRANCH  14  22
ATOM     22  N   UNL     1       1.151   5.733  -8.381  1.00  0.00    -0.321 NA
ATOM     23  H   UNL     1       0.200   5.662  -8.777  1.00  0.00    +0.119 HD
ATOM     24  H   UNL     1       0.988   5.571  -7.371  1.00  0.00    +0.119 HD
ENDBRANCH  14  22
ENDBRANCH   8   9
ENDBRANCH   7   8
ENDBRANCH   1   7
BRANCH   2  25
ATOM     25  O   UNL     1       5.199   8.741  -7.401  1.00  0.00    -0.342 OA
BRANCH  25  26
ATOM     26  C   UNL     1       5.014   9.694  -6.347  1.00  0.00    +0.270 C 
ATOM     27  C   UNL     1       5.713   9.141  -5.066  1.00  0.00    +0.139 C 
ATOM     28  O   UNL     1       3.626   9.911  -6.108  1.00  0.00    -0.342 OA
ATOM     29  C   UNL     1       5.497  10.110  -3.870  1.00  0.00    +0.167 C 
ATOM     30  C   UNL     1       3.323  10.773  -5.003  1.00  0.00    +0.178 C 
ATOM     31  C   UNL     1       4.565  11.272  -4.235  1.00  0.00    +0.176 C 
BRANCH  27  32
ATOM     32  N   UNL     1       5.305   7.740  -4.779  1.00  0.00    -0.321 NA
ATOM     33  H   UNL     1       6.144   7.156  -4.859  1.00  0.00    +0.119 HD
ATOM     34  H   UNL     1       5.070   7.700  -3.785  1.00  0.00    +0.119 HD
ENDBRANCH  27  32
BRANCH  29  35
ATOM     35  O   UNL     1       4.960   9.463  -2.698  1.00  0.00    -0.388 OA
ATOM     36  H   UNL     1       5.092   8.505  -2.863  1.00  0.00    +0.211 HD
ENDBRANCH  29  35
BRANCH  30  37
ATOM     37  C   UNL     1       2.244  10.094  -4.135  1.00  0.00    +0.191 C 
BRANCH  37  38
ATOM     38  O   UNL     1       1.690  10.941  -3.130  1.00  0.00    -0.394 OA
ATOM     39  H   UNL     1       1.476  10.373  -2.356  1.00  0.00    +0.210 HD
ENDBRANCH  37  38
ENDBRANCH  30  37
BRANCH  31  40
ATOM     40  O   UNL     1       4.229  12.002  -3.051  1.00  0.00    -0.388 OA
ATOM     41  H   UNL     1       3.335  11.725  -2.773  1.00  0.00    +0.211 HD
ENDBRANCH  31  40
ENDBRANCH  25  26
ENDBRANCH   2  25
BRANCH   3  42
ATOM     42  O   UNL     1       6.965  10.601  -8.601  1.00  0.00    -0.343 OA
BRANCH  42  43
ATOM     43  C   UNL     1       8.270  10.203  -8.164  1.00  0.00    +0.270 C 
ATOM     44  C   UNL     1       9.288  10.776  -9.185  1.00  0.00    +0.139 C 
ATOM     45  O   UNL     1       8.307   8.774  -8.106  1.00  0.00    -0.342 OA
ATOM     46  C   UNL     1      10.688  10.190  -8.953  1.00  0.00    +0.167 C 
ATOM     47  C   UNL     1       9.595   8.213  -7.832  1.00  0.00    +0.178 C 
ATOM     48  C   UNL     1      10.622   8.663  -8.886  1.00  0.00    +0.176 C 
BRANCH  44  49
ATOM     49  N   UNL     1       9.346  12.258  -9.132  1.00  0.00    -0.321 NA
ATOM     50  H   UNL     1       8.407  12.605  -8.934  1.00  0.00    +0.119 HD
ATOM     51  H   UNL     1       9.588  12.582 -10.074  1.00  0.00    +0.119 HD
ENDBRANCH  44  49
BRANCH  46  52
ATOM     52  O   UNL     1      11.561  10.577 -10.030  1.00  0.00    -0.388 OA
ATOM     53  H   UNL     1      11.032  10.450 -10.843  1.00  0.00    +0.211 HD
ENDBRANCH  46  52
BRANCH  47  54
ATOM     54  C   UNL     1      10.021   8.451  -6.371  1.00  0.00    +0.191 C 
BRANCH  54  55
ATOM     55  O   UNL     1       9.099   7.840  -5.474  1.00  0.00    -0.394 OA
ATOM     56  H   UNL     1       9.613   7.531  -4.702  1.00  0.00    +0.210 HD
ENDBRANCH  54  55
ENDBRANCH  47  54
BRANCH  48  57
ATOM     57  O   UNL     1      11.943   8.150  -8.679  1.00  0.00    -0.388 OA
ATOM     58  H   UNL     1      12.529   8.551  -9.359  1.00  0.00    +0.211 HD
ENDBRANCH  48  57
ENDBRANCH  42  43
ENDBRANCH   3  42
BRANCH   5  59
ATOM     59  O   UNL     1       4.948   9.410 -12.911  1.00  0.00    -0.320 OA
BRANCH  59  60
ATOM     60  C   UNL     1       5.220   8.424 -13.909  1.00  0.00    +0.273 C 
ATOM     61  C   UNL     1       6.706   7.961 -13.868  1.00  0.00    +0.140 C 
ATOM     62  O   UNL     1       4.342   7.330 -13.605  1.00  0.00    -0.342 OA
ATOM     63  C   UNL     1       6.890   6.750 -14.807  1.00  0.00    +0.174 C 
ATOM     64  C   UNL     1       4.459   6.240 -14.534  1.00  0.00    +0.178 C 
ATOM     65  C   UNL     1       5.869   5.651 -14.496  1.00  0.00    +0.176 C 
BRANCH  61  66
ATOM     66  N   UNL     1       7.663   9.017 -14.252  1.00  0.00    -0.321 NA
ATOM     67  H   UNL     1       7.138   9.808 -14.649  1.00  0.00    +0.119 HD
ATOM     68  H   UNL     1       8.246   8.664 -15.025  1.00  0.00    +0.119 HD
ENDBRANCH  61  66
BRANCH  63  69
ATOM     69  O   UNL     1       8.199   6.171 -14.630  1.00  0.00    -0.343 OA
BRANCH  69  70
ATOM     70  C   UNL     1       8.445   5.779 -13.277  1.00  0.00    +0.270 C 
ATOM     71  C   UNL     1       9.169   4.400 -13.267  1.00  0.00    +0.139 C 
ATOM     72  O   UNL     1       9.183   6.826 -12.630  1.00  0.00    -0.342 OA
ATOM     73  C   UNL     1      10.031   4.334 -12.002  1.00  0.00    +0.167 C 
ATOM     74  C   UNL     1      10.605   6.691 -12.787  1.00  0.00    +0.178 C 
ATOM     75  C   UNL     1      11.107   5.433 -12.037  1.00  0.00    +0.176 C 
BRANCH  71  76
ATOM     76  N   UNL     1       8.241   3.243 -13.362  1.00  0.00    -0.321 NA
ATOM     77  H   UNL     1       8.758   2.438 -12.989  1.00  0.00    +0.119 HD
ATOM     78  H   UNL     1       7.485   3.383 -12.674  1.00  0.00    +0.119 HD
ENDBRANCH  71  76
BRANCH  73  79
ATOM     79  O   UNL     1      10.666   3.050 -11.883  1.00  0.00    -0.388 OA
ATOM     80  H   UNL     1      11.597   3.249 -11.663  1.00  0.00    +0.211 HD
ENDBRANCH  73  79
BRANCH  74  81
ATOM     81  C   UNL     1      11.265   8.001 -12.335  1.00  0.00    +0.191 C 
BRANCH  81  82
ATOM     82  O   UNL     1      10.331   9.084 -12.369  1.00  0.00    -0.394 OA
ATOM     83  H   UNL     1       9.448   8.698 -12.232  1.00  0.00    +0.210 HD
ENDBRANCH  81  82
ENDBRANCH  74  81
BRANCH  75  84
ATOM     84  O   UNL     1      11.516   5.652 -10.680  1.00  0.00    -0.388 OA
ATOM     85  H   UNL     1      12.081   4.889 -10.422  1.00  0.00    +0.211 HD
ENDBRANCH  75  84
ENDBRANCH  69  70
ENDBRANCH  63  69
BRANCH  64  86
ATOM     86  C   UNL     1       3.405   5.200 -14.146  1.00  0.00    +0.191 C 
BRANCH  86  87
ATOM     87  O   UNL     1       3.530   4.894 -12.753  1.00  0.00    -0.394 OA
ATOM     88  H   UNL     1       4.222   4.204 -12.712  1.00  0.00    +0.210 HD
ENDBRANCH  86  87
ENDBRANCH  64  86
BRANCH  65  89
ATOM     89  O   UNL     1       6.001   4.594 -15.455  1.00  0.00    -0.388 OA
ATOM     90  H   UNL     1       6.956   4.543 -15.661  1.00  0.00    +0.211 HD
ENDBRANCH  65  89
ENDBRANCH  59  60
ENDBRANCH   5  59
BRANCH   4  91
ATOM     91  N   UNL     1       5.380  11.394 -10.893  1.00  0.00    -0.321 NA
ATOM     92  H   UNL     1       5.872  11.997 -10.229  1.00  0.00    +0.119 HD
ATOM     93  H   UNL     1       4.419  11.289 -10.558  1.00  0.00    +0.119 HD
ENDBRANCH   4  91
TORSDOF 36
ENDMDL
MODEL 6
REMARK VINA RESULT:    -6.798     14.382     20.949
REMARK INTER + INTRA:         -22.685
REMARK INTER:                 -17.351
REMARK INTRA:                  -5.334
REMARK UNBOUND:                -5.555
REMARK SMILES N[C@@H]1[C@@H](O[C@@H]2[C@H](N)[C@H](O[C@@H]3O[C@H](CO)[C@@H](O)[C@H](O[C@@H]4O[C@@H](CO)[C@@H](O)[C@H](O)[C@H]4N)[C@H]3N)O[C@@H](CO[C@H]3O[C@@H](CO)[C@@H](O)[C@H](O)[C@H]3N)[C@H]2O[C@H]2O[C@@H](CO)[C@@H](O)[C@@H](O)[C@H]2N)O[C@H](CO)[C@H](O)[C@H]1O
REMARK SMILES IDX 33 1 47 2 5 3 6 4 8 5 32 6 34 7 35 8 36 9 38 10 41 11 37 12
REMARK SMILES IDX 43 13 45 14 39 15 40 16 42 18 44 20 46 22 48 25 49 26 58 27
REMARK SMILES IDX 50 28 56 29 51 30 54 31 59 32 57 35 52 37 53 38 55 40 4 42
REMARK SMILES IDX 3 43 2 44 60 45 66 46 61 47 64 48 1 49 67 52 62 54 63 55
REMARK SMILES IDX 65 57 9 59 10 60 30 61 11 62 17 63 12 64 15 65 31 66 18 69
REMARK SMILES IDX 19 70 28 71 20 72 26 73 21 74 24 75 29 76 27 79 22 81 23 82
REMARK SMILES IDX 25 84 13 86 14 87 16 89 7 91
REMARK H PARENT 40 17 42 19 44 21 46 23 46 24 59 33 59 34 57 36 53 39 55 41
REMARK H PARENT 1 50 1 51 67 53 63 56 65 58 31 67 31 68 29 77 29 78 27 80
REMARK H PARENT 23 83 25 85 14 88 16 90 7 92 7 93
ROOT
ATOM      1  C   UNL     1      -3.053 -10.535  -5.639  1.00  0.00    +0.179 C 
ATOM      2  C   UNL     1      -2.815  -9.801  -4.303  1.00  0.00    +0.183 C 
ATOM      3  C   UNL     1      -3.207  -8.313  -4.404  1.00  0.00    +0.175 C 
ATOM      4  C   UNL     1      -4.642  -8.183  -4.959  1.00  0.00    +0.140 C 
ATOM      5  C   UNL     1      -4.729  -8.944  -6.312  1.00  0.00    +0.273 C 
ATOM      6  O   UNL     1      -4.386 -10.312  -6.135  1.00  0.00    -0.342 OA
ENDROOT
BRANCH   1   7
ATOM      7  C   UNL     1      -1.976 -10.217  -6.705  1.00  0.00    +0.198 C 
BRANCH   7   8
ATOM      8  O   UNL     1      -2.519 -10.303  -8.026  1.00  0.00    -0.348 OA
BRANCH   8   9
ATOM      9  C   UNL     1      -1.521 -10.586  -9.018  1.00  0.00    +0.270 C 
ATOM     10  C   UNL     1       0.794 -11.218  -9.303  1.00  0.00    +0.178 C 
ATOM     11  C   UNL     1       0.358 -11.312 -10.774  1.00  0.00    +0.176 C 
ATOM     12  O   UNL     1      -0.262 -10.849  -8.405  1.00  0.00    -0.342 OA
ATOM     13  C   UNL     1      -0.929 -12.133 -10.946  1.00  0.00    +0.167 C 
ATOM     14  C   UNL     1      -1.991 -11.803  -9.872  1.00  0.00    +0.139 C 
BRANCH  10  15
ATOM     15  C   UNL     1       1.469 -12.485  -8.753  1.00  0.00    +0.191 C 
BRANCH  15  16
ATOM     16  O   UNL     1       0.607 -13.202  -7.872  1.00  0.00    -0.394 OA
ATOM     17  H   UNL     1       0.722 -12.817  -6.984  1.00  0.00    +0.210 HD
ENDBRANCH  15  16
ENDBRANCH  10  15
BRANCH  11  18
ATOM     18  O   UNL     1       1.382 -11.823 -11.636  1.00  0.00    -0.388 OA
ATOM     19  H   UNL     1       1.282 -12.793 -11.664  1.00  0.00    +0.211 HD
ENDBRANCH  11  18
BRANCH  13  20
ATOM     20  O   UNL     1      -1.458 -11.851 -12.258  1.00  0.00    -0.388 OA
ATOM     21  H   UNL     1      -1.899 -12.677 -12.533  1.00  0.00    +0.211 HD
ENDBRANCH  13  20
BRANCH  14  22
ATOM     22  N   UNL     1      -2.243 -13.000  -9.014  1.00  0.00    -0.321 NA
ATOM     23  H   UNL     1      -1.518 -12.970  -8.279  1.00  0.00    +0.119 HD
ATOM     24  H   UNL     1      -3.110 -12.800  -8.483  1.00  0.00    +0.119 HD
ENDBRANCH  14  22
ENDBRANCH   8   9
ENDBRANCH   7   8
ENDBRANCH   1   7
BRANCH   2  25
ATOM     25  O   UNL     1      -1.427  -9.890  -3.935  1.00  0.00    -0.342 OA
BRANCH  25  26
ATOM     26  C   UNL     1      -1.232 -10.617  -2.715  1.00  0.00    +0.270 C 
ATOM     27  C   UNL     1      -0.556  -9.659  -1.684  1.00  0.00    +0.139 C 
ATOM     28  O   UNL     1      -0.418 -11.765  -2.943  1.00  0.00    -0.342 OA
ATOM     29  C   UNL     1      -0.269 -10.412  -0.354  1.00  0.00    +0.167 C 
ATOM     30  C   UNL     1      -0.074 -12.513  -1.768  1.00  0.00    +0.178 C 
ATOM     31  C   UNL     1      -0.609 -11.904  -0.455  1.00  0.00    +0.176 C 
BRANCH  27  32
ATOM     32  N   UNL     1       0.638  -8.987  -2.259  1.00  0.00    -0.321 NA
ATOM     33  H   UNL     1       0.843  -8.173  -1.670  1.00  0.00    +0.119 HD
ATOM     34  H   UNL     1       1.432  -9.612  -2.100  1.00  0.00    +0.119 HD
ENDBRANCH  27  32
BRANCH  29  35
ATOM     35  O   UNL     1       1.101 -10.299   0.083  1.00  0.00    -0.388 OA
ATOM     36  H   UNL     1       1.110  -9.511   0.666  1.00  0.00    +0.211 HD
ENDBRANCH  29  35
BRANCH  30  37
ATOM     37  C   UNL     1       1.444 -12.790  -1.793  1.00  0.00    +0.191 C 
BRANCH  37  38
ATOM     38  O   UNL     1       2.218 -11.727  -2.345  1.00  0.00    -0.394 OA
ATOM     39  H   UNL     1       3.162 -12.004  -2.305  1.00  0.00    +0.210 HD
ENDBRANCH  37  38
ENDBRANCH  30  37
BRANCH  31  40
ATOM     40  O   UNL     1      -0.124 -12.582   0.708  1.00  0.00    -0.388 OA
ATOM     41  H   UNL     1       0.519 -11.995   1.149  1.00  0.00    +0.211 HD
ENDBRANCH  31  40
ENDBRANCH  25  26
ENDBRANCH   2  25
BRANCH   3  42
ATOM     42  O   UNL     1      -3.041  -7.721  -3.097  1.00  0.00    -0.343 OA
BRANCH  42  43
ATOM     43  C   UNL     1      -2.174  -6.581  -3.070  1.00  0.00    +0.270 C 
ATOM     44  C   UNL     1      -3.047  -5.336  -3.381  1.00  0.00    +0.139 C 
ATOM     45  O   UNL     1      -1.144  -6.776  -4.043  1.00  0.00    -0.342 OA
ATOM     46  C   UNL     1      -2.171  -4.099  -3.631  1.00  0.00    +0.167 C 
ATOM     47  C   UNL     1      -0.281  -5.653  -4.247  1.00  0.00    +0.178 C 
ATOM     48  C   UNL     1      -1.091  -4.413  -4.668  1.00  0.00    +0.176 C 
BRANCH  44  49
ATOM     49  N   UNL     1      -4.014  -5.056  -2.291  1.00  0.00    -0.321 NA
ATOM     50  H   UNL     1      -3.632  -4.309  -1.711  1.00  0.00    +0.119 HD
ATOM     51  H   UNL     1      -4.055  -5.895  -1.704  1.00  0.00    +0.119 HD
ENDBRANCH  44  49
BRANCH  46  52
ATOM     52  O   UNL     1      -2.986  -3.016  -4.114  1.00  0.00    -0.388 OA
ATOM     53  H   UNL     1      -2.516  -2.203  -3.838  1.00  0.00    +0.211 HD
ENDBRANCH  46  52
BRANCH  47  54
ATOM     54  C   UNL     1       0.661  -5.434  -3.048  1.00  0.00    +0.191 C 
BRANCH  54  55
ATOM     55  O   UNL     1       1.823  -6.247  -3.169  1.00  0.00    -0.394 OA
ATOM     56  H   UNL     1       2.131  -6.171  -4.093  1.00  0.00    +0.210 HD
ENDBRANCH  54  55
ENDBRANCH  47  54
BRANCH  48  57
ATOM     57  O   UNL     1      -0.300  -3.239  -4.884  1.00  0.00    -0.388 OA
ATOM     58  H   UNL     1      -0.896  -2.537  -5.229  1.00  0.00    +0.211 HD
ENDBRANCH  48  57
ENDBRANCH  42  43
ENDBRANCH   3  42
BRANCH   5  59
ATOM     59  O   UNL     1      -6.069  -8.826  -6.794  1.00  0.00    -0.320 OA
BRANCH  59  60
ATOM     60  C   UNL     1      -6.456  -9.860  -7.700  1.00  0.00    +0.273 C 
ATOM     61  C   UNL     1      -7.870 -10.419  -7.364  1.00  0.00    +0.140 C 
ATOM     62  O   UNL     1      -6.453  -9.245  -8.997  1.00  0.00    -0.342 OA
ATOM     63  C   UNL     1      -8.328 -11.367  -8.492  1.00  0.00    +0.174 C 
ATOM     64  C   UNL     1      -6.797 -10.156 -10.053  1.00  0.00    +0.178 C 
ATOM     65  C   UNL     1      -8.218 -10.687  -9.861  1.00  0.00    +0.176 C 
BRANCH  61  66
ATOM     66  N   UNL     1      -7.929 -11.139  -6.076  1.00  0.00    -0.321 NA
ATOM     67  H   UNL     1      -6.968 -11.351  -5.774  1.00  0.00    +0.119 HD
ATOM     68  H   UNL     1      -8.370 -12.057  -6.236  1.00  0.00    +0.119 HD
ENDBRANCH  61  66
BRANCH  63  69
ATOM     69  O   UNL     1      -9.712 -11.730  -8.313  1.00  0.00    -0.343 OA
BRANCH  69  70
ATOM     70  C   UNL     1     -10.604 -10.654  -8.617  1.00  0.00    +0.270 C 
ATOM     71  C   UNL     1     -11.924 -11.234  -9.205  1.00  0.00    +0.139 C 
ATOM     72  O   UNL     1     -10.793  -9.875  -7.426  1.00  0.00    -0.342 OA
ATOM     73  C   UNL     1     -13.057 -10.263  -8.858  1.00  0.00    +0.167 C 
ATOM     74  C   UNL     1     -11.868 -10.357  -6.603  1.00  0.00    +0.178 C 
ATOM     75  C   UNL     1     -13.222 -10.168  -7.331  1.00  0.00    +0.176 C 
BRANCH  71  76
ATOM     76  N   UNL     1     -11.855 -11.499 -10.666  1.00  0.00    -0.321 NA
ATOM     77  H   UNL     1     -10.941 -11.144 -10.972  1.00  0.00    +0.119 HD
ATOM     78  H   UNL     1     -11.774 -12.519 -10.802  1.00  0.00    +0.119 HD
ENDBRANCH  71  76
BRANCH  73  79
ATOM     79  O   UNL     1     -14.297 -10.693  -9.444  1.00  0.00    -0.388 OA
ATOM     80  H   UNL     1     -14.041 -11.364 -10.107  1.00  0.00    +0.211 HD
ENDBRANCH  73  79
BRANCH  74  81
ATOM     81  C   UNL     1     -11.782  -9.659  -5.240  1.00  0.00    +0.191 C 
BRANCH  81  82
ATOM     82  O   UNL     1     -10.420  -9.414  -4.875  1.00  0.00    -0.394 OA
ATOM     83  H   UNL     1     -10.015 -10.283  -4.701  1.00  0.00    +0.210 HD
ENDBRANCH  81  82
ENDBRANCH  74  81
BRANCH  75  84
ATOM     84  O   UNL     1     -13.891  -8.927  -7.066  1.00  0.00    -0.388 OA
ATOM     85  H   UNL     1     -13.572  -8.609  -6.191  1.00  0.00    +0.211 HD
ENDBRANCH  75  84
ENDBRANCH  69  70
ENDBRANCH  63  69
BRANCH  64  86
ATOM     86  C   UNL     1      -6.657  -9.393 -11.373  1.00  0.00    +0.191 C 
BRANCH  86  87
ATOM     87  O   UNL     1      -5.881  -8.209 -11.155  1.00  0.00    -0.394 OA
ATOM     88  H   UNL     1      -5.275  -8.441 -10.424  1.00  0.00    +0.210 HD
ENDBRANCH  86  87
ENDBRANCH  64  86
BRANCH  65  89
ATOM     89  O   UNL     1      -8.547 -11.631 -10.887  1.00  0.00    -0.388 OA
ATOM     90  H   UNL     1      -9.213 -11.188 -11.451  1.00  0.00    +0.211 HD
ENDBRANCH  65  89
ENDBRANCH  59  60
ENDBRANCH   5  59
BRANCH   4  91
ATOM     91  N   UNL     1      -5.640  -8.660  -3.969  1.00  0.00    -0.321 NA
ATOM     92  H   UNL     1      -5.625  -9.683  -3.980  1.00  0.00    +0.119 HD
ATOM     93  H   UNL     1      -6.564  -8.363  -4.291  1.00  0.00    +0.119 HD
ENDBRANCH   4  91
TORSDOF 36
ENDMDL
MODEL 7
REMARK VINA RESULT:    -6.704      1.321      2.110
REMARK INTER + INTRA:         -22.448
REMARK INTER:                 -17.108
REMARK INTRA:                  -5.340
REMARK UNBOUND:                -5.555
REMARK SMILES N[C@@H]1[C@@H](O[C@@H]2[C@H](N)[C@H](O[C@@H]3O[C@H](CO)[C@@H](O)[C@H](O[C@@H]4O[C@@H](CO)[C@@H](O)[C@H](O)[C@H]4N)[C@H]3N)O[C@@H](CO[C@H]3O[C@@H](CO)[C@@H](O)[C@H](O)[C@H]3N)[C@H]2O[C@H]2O[C@@H](CO)[C@@H](O)[C@@H](O)[C@H]2N)O[C@H](CO)[C@H](O)[C@H]1O
REMARK SMILES IDX 33 1 47 2 5 3 6 4 8 5 32 6 34 7 35 8 36 9 38 10 41 11 37 12
REMARK SMILES IDX 43 13 45 14 39 15 40 16 42 18 44 20 46 22 48 25 49 26 58 27
REMARK SMILES IDX 50 28 56 29 51 30 54 31 59 32 57 35 52 37 53 38 55 40 4 42
REMARK SMILES IDX 3 43 2 44 60 45 66 46 61 47 64 48 1 49 67 52 62 54 63 55
REMARK SMILES IDX 65 57 9 59 10 60 30 61 11 62 17 63 12 64 15 65 31 66 18 69
REMARK SMILES IDX 19 70 28 71 20 72 26 73 21 74 24 75 29 76 27 79 22 81 23 82
REMARK SMILES IDX 25 84 13 86 14 87 16 89 7 91
REMARK H PARENT 40 17 42 19 44 21 46 23 46 24 59 33 59 34 57 36 53 39 55 41
REMARK H PARENT 1 50 1 51 67 53 63 56 65 58 31 67 31 68 29 77 29 78 27 80
REMARK H PARENT 23 83 25 85 14 88 16 90 7 92 7 93
ROOT
ATOM      1  C   UNL     1       4.601   7.980 -10.747  1.00  0.00    +0.179 C 
ATOM      2  C   UNL     1       5.087   7.638 -12.171  1.00  0.00    +0.183 C 
ATOM      3  C   UNL     1       5.612   6.190 -12.251  1.00  0.00    +0.175 C 
ATOM      4  C   UNL     1       4.557   5.215 -11.684  1.00  0.00    +0.140 C 
ATOM      5  C   UNL     1       4.181   5.663 -10.243  1.00  0.00    +0.273 C 
ATOM      6  O   UNL     1       3.677   6.993 -10.253  1.00  0.00    -0.342 OA
ENDROOT
BRANCH   1   7
ATOM      7  C   UNL     1       5.763   8.236  -9.755  1.00  0.00    +0.198 C 
BRANCH   7   8
ATOM      8  O   UNL     1       5.616   9.503  -9.108  1.00  0.00    -0.348 OA
BRANCH   8   9
ATOM      9  C   UNL     1       6.668   9.771  -8.169  1.00  0.00    +0.270 C 
ATOM     10  C   UNL     1       8.236  11.467  -7.457  1.00  0.00    +0.178 C 
ATOM     11  C   UNL     1       8.505  10.437  -6.346  1.00  0.00    +0.176 C 
ATOM     12  O   UNL     1       7.223  11.065  -8.389  1.00  0.00    -0.342 OA
ATOM     13  C   UNL     1       7.209   9.938  -5.691  1.00  0.00    +0.167 C 
ATOM     14  C   UNL     1       6.096   9.648  -6.724  1.00  0.00    +0.139 C 
BRANCH  10  15
ATOM     15  C   UNL     1       7.888  12.877  -6.952  1.00  0.00    +0.191 C 
BRANCH  15  16
ATOM     16  O   UNL     1       6.501  13.166  -7.106  1.00  0.00    -0.394 OA
ATOM     17  H   UNL     1       6.172  13.459  -6.238  1.00  0.00    +0.210 HD
ENDBRANCH  15  16
ENDBRANCH  10  15
BRANCH  11  18
ATOM     18  O   UNL     1       9.409  10.914  -5.342  1.00  0.00    -0.388 OA
ATOM     19  H   UNL     1      10.076  10.218  -5.198  1.00  0.00    +0.211 HD
ENDBRANCH  11  18
BRANCH  13  20
ATOM     20  O   UNL     1       7.522   8.735  -4.960  1.00  0.00    -0.388 OA
ATOM     21  H   UNL     1       7.659   9.030  -4.039  1.00  0.00    +0.211 HD
ENDBRANCH  13  20
BRANCH  14  22
ATOM     22  N   UNL     1       4.946  10.581  -6.517  1.00  0.00    -0.321 NA
ATOM     23  H   UNL     1       4.136  10.123  -6.964  1.00  0.00    +0.119 HD
ATOM     24  H   UNL     1       4.708  10.530  -5.510  1.00  0.00    +0.119 HD
ENDBRANCH  14  22
ENDBRANCH   8   9
ENDBRANCH   7   8
ENDBRANCH   1   7
BRANCH   2  25
ATOM     25  O   UNL     1       6.144   8.535 -12.556  1.00  0.00    -0.342 OA
BRANCH  25  26
ATOM     26  C   UNL     1       5.695   9.547 -13.466  1.00  0.00    +0.270 C 
ATOM     27  C   UNL     1       6.420  10.881 -13.104  1.00  0.00    +0.139 C 
ATOM     28  O   UNL     1       4.281   9.703 -13.380  1.00  0.00    -0.342 OA
ATOM     29  C   UNL     1       5.928  12.032 -14.026  1.00  0.00    +0.167 C 
ATOM     30  C   UNL     1       3.734  10.762 -14.178  1.00  0.00    +0.178 C 
ATOM     31  C   UNL     1       4.790  11.580 -14.950  1.00  0.00    +0.176 C 
BRANCH  27  32
ATOM     32  N   UNL     1       6.307  11.190 -11.654  1.00  0.00    -0.321 NA
ATOM     33  H   UNL     1       7.198  11.608 -11.362  1.00  0.00    +0.119 HD
ATOM     34  H   UNL     1       5.636  11.956 -11.568  1.00  0.00    +0.119 HD
ENDBRANCH  27  32
BRANCH  29  35
ATOM     35  O   UNL     1       5.474  13.193 -13.301  1.00  0.00    -0.388 OA
ATOM     36  H   UNL     1       5.113  12.834 -12.463  1.00  0.00    +0.211 HD
ENDBRANCH  29  35
BRANCH  30  37
ATOM     37  C   UNL     1       2.777  11.593 -13.297  1.00  0.00    +0.191 C 
BRANCH  37  38
ATOM     38  O   UNL     1       1.634  10.871 -12.843  1.00  0.00    -0.394 OA
ATOM     39  H   UNL     1       1.346  11.284 -11.997  1.00  0.00    +0.210 HD
ENDBRANCH  37  38
ENDBRANCH  30  37
BRANCH  31  40
ATOM     40  O   UNL     1       4.234  12.720 -15.612  1.00  0.00    -0.388 OA
ATOM     41  H   UNL     1       3.895  13.327 -14.927  1.00  0.00    +0.211 HD
ENDBRANCH  31  40
ENDBRANCH  25  26
ENDBRANCH   2  25
BRANCH   3  42
ATOM     42  O   UNL     1       5.962   5.920 -13.626  1.00  0.00    -0.343 OA
BRANCH  42  43
ATOM     43  C   UNL     1       7.226   5.269 -13.798  1.00  0.00    +0.270 C 
ATOM     44  C   UNL     1       8.043   6.115 -14.809  1.00  0.00    +0.139 C 
ATOM     45  O   UNL     1       6.985   3.941 -14.274  1.00  0.00    -0.342 OA
ATOM     46  C   UNL     1       9.306   5.366 -15.259  1.00  0.00    +0.167 C 
ATOM     47  C   UNL     1       8.158   3.207 -14.642  1.00  0.00    +0.178 C 
ATOM     48  C   UNL     1       8.950   3.955 -15.730  1.00  0.00    +0.176 C 
BRANCH  44  49
ATOM     49  N   UNL     1       8.414   7.437 -14.247  1.00  0.00    -0.321 NA
ATOM     50  H   UNL     1       8.285   7.399 -13.235  1.00  0.00    +0.119 HD
ATOM     51  H   UNL     1       7.736   8.116 -14.605  1.00  0.00    +0.119 HD
ENDBRANCH  44  49
BRANCH  46  52
ATOM     52  O   UNL     1       9.935   6.079 -16.340  1.00  0.00    -0.388 OA
ATOM     53  H   UNL     1       9.434   6.917 -16.416  1.00  0.00    +0.211 HD
ENDBRANCH  46  52
BRANCH  47  54
ATOM     54  C   UNL     1       8.983   2.795 -13.408  1.00  0.00    +0.191 C 
BRANCH  54  55
ATOM     55  O   UNL     1       9.417   1.444 -13.524  1.00  0.00    -0.394 OA
ATOM     56  H   UNL     1       9.214   1.156 -14.435  1.00  0.00    +0.210 HD
ENDBRANCH  54  55
ENDBRANCH  47  54
BRANCH  48  57
ATOM     57  O   UNL     1      10.147   3.290 -16.150  1.00  0.00    -0.388 OA
ATOM     58  H   UNL     1      10.907   3.751 -15.730  1.00  0.00    +0.211 HD
ENDBRANCH  48  57
ENDBRANCH  42  43
ENDBRANCH   3  42
BRANCH   5  59
ATOM     59  O   UNL     1       3.191   4.759  -9.749  1.00  0.00    -0.320 OA
BRANCH  59  60
ATOM     60  C   UNL     1       3.044   4.775  -8.328  1.00  0.00    +0.273 C 
ATOM     61  C   UNL     1       2.699   3.362  -7.771  1.00  0.00    +0.140 C 
ATOM     62  O   UNL     1       4.312   5.219  -7.824  1.00  0.00    -0.342 OA
ATOM     63  C   UNL     1       2.769   3.389  -6.230  1.00  0.00    +0.174 C 
ATOM     64  C   UNL     1       4.344   5.323  -6.391  1.00  0.00    +0.178 C 
ATOM     65  C   UNL     1       4.110   3.955  -5.750  1.00  0.00    +0.176 C 
BRANCH  61  66
ATOM     66  N   UNL     1       1.367   2.876  -8.184  1.00  0.00    -0.321 NA
ATOM     67  H   UNL     1       1.344   1.852  -8.077  1.00  0.00    +0.119 HD
ATOM     68  H   UNL     1       1.258   3.044  -9.195  1.00  0.00    +0.119 HD
ENDBRANCH  61  66
BRANCH  63  69
ATOM     69  O   UNL     1       2.663   2.052  -5.699  1.00  0.00    -0.343 OA
BRANCH  69  70
ATOM     70  C   UNL     1       3.551   1.135  -6.344  1.00  0.00    +0.270 C 
ATOM     71  C   UNL     1       4.395   0.394  -5.265  1.00  0.00    +0.139 C 
ATOM     72  O   UNL     1       2.772   0.259  -7.173  1.00  0.00    -0.342 OA
ATOM     73  C   UNL     1       4.760  -0.985  -5.824  1.00  0.00    +0.167 C 
ATOM     74  C   UNL     1       2.295  -0.901  -6.473  1.00  0.00    +0.178 C 
ATOM     75  C   UNL     1       3.485  -1.809  -6.075  1.00  0.00    +0.176 C 
BRANCH  71  76
ATOM     76  N   UNL     1       5.599   1.150  -4.833  1.00  0.00    -0.321 NA
ATOM     77  H   UNL     1       5.707   0.955  -3.831  1.00  0.00    +0.119 HD
ATOM     78  H   UNL     1       6.426   0.700  -5.256  1.00  0.00    +0.119 HD
ENDBRANCH  71  76
BRANCH  73  79
ATOM     79  O   UNL     1       5.614  -1.696  -4.911  1.00  0.00    -0.388 OA
ATOM     80  H   UNL     1       6.197  -2.235  -5.480  1.00  0.00    +0.211 HD
ENDBRANCH  73  79
BRANCH  74  81
ATOM     81  C   UNL     1       1.240  -1.591  -7.347  1.00  0.00    +0.191 C 
BRANCH  81  82
ATOM     82  O   UNL     1       0.687  -2.731  -6.680  1.00  0.00    -0.394 OA
ATOM     83  H   UNL     1       0.272  -2.403  -5.862  1.00  0.00    +0.210 HD
ENDBRANCH  81  82
ENDBRANCH  74  81
BRANCH  75  84
ATOM     84  O   UNL     1       3.830  -2.820  -7.032  1.00  0.00    -0.388 OA
ATOM     85  H   UNL     1       4.442  -2.405  -7.682  1.00  0.00    +0.211 HD
ENDBRANCH  75  84
ENDBRANCH  69  70
ENDBRANCH  63  69
BRANCH  64  86
ATOM     86  C   UNL     1       5.711   5.896  -6.009  1.00  0.00    +0.191 C 
BRANCH  86  87
ATOM     87  O   UNL     1       5.588   6.645  -4.795  1.00  0.00    -0.394 OA
ATOM     88  H   UNL     1       6.481   7.013  -4.640  1.00  0.00    +0.210 HD
ENDBRANCH  86  87
ENDBRANCH  64  86
BRANCH  65  89
ATOM     89  O   UNL     1       4.094   4.064  -4.321  1.00  0.00    -0.388 OA
ATOM     90  H   UNL     1       3.636   4.907  -4.126  1.00  0.00    +0.211 HD
ENDBRANCH  65  89
ENDBRANCH  59  60
ENDBRANCH   5  59
BRANCH   4  91
ATOM     91  N   UNL     1       3.378   5.127 -12.582  1.00  0.00    -0.321 NA
ATOM     92  H   UNL     1       2.731   5.874 -12.319  1.00  0.00    +0.119 HD
ATOM     93  H   UNL     1       2.911   4.236 -12.395  1.00  0.00    +0.119 HD
ENDBRANCH   4  91
TORSDOF 36
ENDMDL
MODEL 8
REMARK VINA RESULT:    -6.671     14.985     20.530
REMARK INTER + INTRA:         -22.366
REMARK INTER:                 -16.441
REMARK INTRA:                  -5.925
REMARK UNBOUND:                -5.555
REMARK SMILES N[C@@H]1[C@@H](O[C@@H]2[C@H](N)[C@H](O[C@@H]3O[C@H](CO)[C@@H](O)[C@H](O[C@@H]4O[C@@H](CO)[C@@H](O)[C@H](O)[C@H]4N)[C@H]3N)O[C@@H](CO[C@H]3O[C@@H](CO)[C@@H](O)[C@H](O)[C@H]3N)[C@H]2O[C@H]2O[C@@H](CO)[C@@H](O)[C@@H](O)[C@H]2N)O[C@H](CO)[C@H](O)[C@H]1O
REMARK SMILES IDX 33 1 47 2 5 3 6 4 8 5 32 6 34 7 35 8 36 9 38 10 41 11 37 12
REMARK SMILES IDX 43 13 45 14 39 15 40 16 42 18 44 20 46 22 48 25 49 26 58 27
REMARK SMILES IDX 50 28 56 29 51 30 54 31 59 32 57 35 52 37 53 38 55 40 4 42
REMARK SMILES IDX 3 43 2 44 60 45 66 46 61 47 64 48 1 49 67 52 62 54 63 55
REMARK SMILES IDX 65 57 9 59 10 60 30 61 11 62 17 63 12 64 15 65 31 66 18 69
REMARK SMILES IDX 19 70 28 71 20 72 26 73 21 74 24 75 29 76 27 79 22 81 23 82
REMARK SMILES IDX 25 84 13 86 14 87 16 89 7 91
REMARK H PARENT 40 17 42 19 44 21 46 23 46 24 59 33 59 34 57 36 53 39 55 41
REMARK H PARENT 1 50 1 51 67 53 63 56 65 58 31 67 31 68 29 77 29 78 27 80
REMARK H PARENT 23 83 25 85 14 88 16 90 7 92 7 93
ROOT
ATOM      1  C   UNL     1      -3.212  -9.732  -4.323  1.00  0.00    +0.179 C 
ATOM      2  C   UNL     1      -3.736  -9.705  -5.774  1.00  0.00    +0.183 C 
ATOM      3  C   UNL     1      -5.219  -9.287  -5.826  1.00  0.00    +0.175 C 
ATOM      4  C   UNL     1      -5.422  -7.969  -5.048  1.00  0.00    +0.140 C 
ATOM      5  C   UNL     1      -4.875  -8.148  -3.603  1.00  0.00    +0.273 C 
ATOM      6  O   UNL     1      -3.498  -8.501  -3.634  1.00  0.00    -0.342 OA
ENDROOT
BRANCH   1   7
ATOM      7  C   UNL     1      -3.696 -10.969  -3.527  1.00  0.00    +0.198 C 
BRANCH   7   8
ATOM      8  O   UNL     1      -3.987 -10.624  -2.169  1.00  0.00    -0.348 OA
BRANCH   8   9
ATOM      9  C   UNL     1      -5.368 -10.825  -1.830  1.00  0.00    +0.270 C 
ATOM     10  C   UNL     1      -7.458 -11.694  -2.677  1.00  0.00    +0.178 C 
ATOM     11  C   UNL     1      -7.905 -11.412  -1.233  1.00  0.00    +0.176 C 
ATOM     12  O   UNL     1      -6.081 -11.383  -2.930  1.00  0.00    -0.342 OA
ATOM     13  C   UNL     1      -6.928 -11.992  -0.199  1.00  0.00    +0.167 C 
ATOM     14  C   UNL     1      -5.450 -11.755  -0.582  1.00  0.00    +0.139 C 
BRANCH  10  15
ATOM     15  C   UNL     1      -7.720 -13.130  -3.159  1.00  0.00    +0.191 C 
BRANCH  15  16
ATOM     16  O   UNL     1      -8.717 -13.172  -4.177  1.00  0.00    -0.394 OA
ATOM     17  H   UNL     1      -8.340 -13.670  -4.925  1.00  0.00    +0.210 HD
ENDBRANCH  15  16
ENDBRANCH  10  15
BRANCH  11  18
ATOM     18  O   UNL     1      -9.236 -11.865  -0.955  1.00  0.00    -0.388 OA
ATOM     19  H   UNL     1      -9.469 -11.553  -0.061  1.00  0.00    +0.211 HD
ENDBRANCH  11  18
BRANCH  13  20
ATOM     20  O   UNL     1      -7.211 -11.368   1.070  1.00  0.00    -0.388 OA
ATOM     21  H   UNL     1      -7.969 -11.866   1.431  1.00  0.00    +0.211 HD
ENDBRANCH  13  20
BRANCH  14  22
ATOM     22  N   UNL     1      -4.769 -13.061  -0.836  1.00  0.00    -0.321 NA
ATOM     23  H   UNL     1      -4.158 -13.217  -0.018  1.00  0.00    +0.119 HD
ATOM     24  H   UNL     1      -5.492 -13.793  -0.721  1.00  0.00    +0.119 HD
ENDBRANCH  14  22
ENDBRANCH   8   9
ENDBRANCH   7   8
ENDBRANCH   1   7
BRANCH   2  25
ATOM     25  O   UNL     1      -3.602 -11.009  -6.367  1.00  0.00    -0.342 OA
BRANCH  25  26
ATOM     26  C   UNL     1      -2.318 -11.201  -6.976  1.00  0.00    +0.270 C 
ATOM     27  C   UNL     1      -1.970  -9.915  -7.788  1.00  0.00    +0.139 C 
ATOM     28  O   UNL     1      -2.336 -12.345  -7.827  1.00  0.00    -0.342 OA
ATOM     29  C   UNL     1      -0.608 -10.088  -8.518  1.00  0.00    +0.167 C 
ATOM     30  C   UNL     1      -1.129 -12.574  -8.567  1.00  0.00    +0.178 C 
ATOM     31  C   UNL     1      -0.041 -11.503  -8.345  1.00  0.00    +0.176 C 
BRANCH  27  32
ATOM     32  N   UNL     1      -3.083  -9.517  -8.690  1.00  0.00    -0.321 NA
ATOM     33  H   UNL     1      -3.296 -10.325  -9.285  1.00  0.00    +0.119 HD
ATOM     34  H   UNL     1      -3.915  -9.418  -8.102  1.00  0.00    +0.119 HD
ENDBRANCH  27  32
BRANCH  29  35
ATOM     35  O   UNL     1      -0.677  -9.809  -9.932  1.00  0.00    -0.388 OA
ATOM     36  H   UNL     1       0.105 -10.264 -10.311  1.00  0.00    +0.211 HD
ENDBRANCH  29  35
BRANCH  30  37
ATOM     37  C   UNL     1      -1.502 -12.833 -10.042  1.00  0.00    +0.191 C 
BRANCH  37  38
ATOM     38  O   UNL     1      -2.586 -12.036 -10.514  1.00  0.00    -0.394 OA
ATOM     39  H   UNL     1      -3.005 -12.527 -11.258  1.00  0.00    +0.210 HD
ENDBRANCH  37  38
ENDBRANCH  30  37
BRANCH  31  40
ATOM     40  O   UNL     1       1.088 -11.671  -9.208  1.00  0.00    -0.388 OA
ATOM     41  H   UNL     1       1.180 -10.858  -9.741  1.00  0.00    +0.211 HD
ENDBRANCH  31  40
ENDBRANCH  25  26
ENDBRANCH   2  25
BRANCH   3  42
ATOM     42  O   UNL     1      -5.607  -9.199  -7.214  1.00  0.00    -0.343 OA
BRANCH  42  43
ATOM     43  C   UNL     1      -6.697 -10.054  -7.579  1.00  0.00    +0.270 C 
ATOM     44  C   UNL     1      -6.417 -10.564  -9.018  1.00  0.00    +0.139 C 
ATOM     45  O   UNL     1      -7.908  -9.297  -7.500  1.00  0.00    -0.342 OA
ATOM     46  C   UNL     1      -7.647 -11.276  -9.598  1.00  0.00    +0.167 C 
ATOM     47  C   UNL     1      -9.076  -9.968  -7.983  1.00  0.00    +0.178 C 
ATOM     48  C   UNL     1      -8.891 -10.397  -9.449  1.00  0.00    +0.176 C 
BRANCH  44  49
ATOM     49  N   UNL     1      -5.242 -11.469  -9.062  1.00  0.00    -0.321 NA
ATOM     50  H   UNL     1      -4.452 -10.947  -9.442  1.00  0.00    +0.119 HD
ATOM     51  H   UNL     1      -5.459 -12.209  -9.736  1.00  0.00    +0.119 HD
ENDBRANCH  44  49
BRANCH  46  52
ATOM     52  O   UNL     1      -7.432 -11.556 -10.994  1.00  0.00    -0.388 OA
ATOM     53  H   UNL     1      -7.663 -12.502 -11.100  1.00  0.00    +0.211 HD
ENDBRANCH  46  52
BRANCH  47  54
ATOM     54  C   UNL     1      -9.520 -11.094  -7.030  1.00  0.00    +0.191 C 
BRANCH  54  55
ATOM     55  O   UNL     1      -9.527 -10.636  -5.682  1.00  0.00    -0.394 OA
ATOM     56  H   UNL     1      -8.887  -9.900  -5.627  1.00  0.00    +0.210 HD
ENDBRANCH  54  55
ENDBRANCH  47  54
BRANCH  48  57
ATOM     57  O   UNL     1     -10.015 -11.087 -10.008  1.00  0.00    -0.388 OA
ATOM     58  H   UNL     1      -9.720 -11.994 -10.248  1.00  0.00    +0.211 HD
ENDBRANCH  48  57
ENDBRANCH  42  43
ENDBRANCH   3  42
BRANCH   5  59
ATOM     59  O   UNL     1      -5.056  -6.910  -2.911  1.00  0.00    -0.320 OA
BRANCH  59  60
ATOM     60  C   UNL     1      -3.837  -6.293  -2.493  1.00  0.00    +0.273 C 
ATOM     61  C   UNL     1      -2.860  -7.324  -1.856  1.00  0.00    +0.140 C 
ATOM     62  O   UNL     1      -3.271  -5.733  -3.687  1.00  0.00    -0.342 OA
ATOM     63  C   UNL     1      -1.488  -6.656  -1.627  1.00  0.00    +0.174 C 
ATOM     64  C   UNL     1      -2.035  -5.039  -3.452  1.00  0.00    +0.178 C 
ATOM     65  C   UNL     1      -0.975  -5.999  -2.912  1.00  0.00    +0.176 C 
BRANCH  61  66
ATOM     66  N   UNL     1      -3.344  -7.882  -0.577  1.00  0.00    -0.321 NA
ATOM     67  H   UNL     1      -2.554  -7.927   0.081  1.00  0.00    +0.119 HD
ATOM     68  H   UNL     1      -3.622  -8.862  -0.734  1.00  0.00    +0.119 HD
ENDBRANCH  61  66
BRANCH  63  69
ATOM     69  O   UNL     1      -0.509  -7.640  -1.238  1.00  0.00    -0.343 OA
BRANCH  69  70
ATOM     70  C   UNL     1      -0.341  -8.665  -2.222  1.00  0.00    +0.270 C 
ATOM     71  C   UNL     1       1.171  -8.796  -2.571  1.00  0.00    +0.139 C 
ATOM     72  O   UNL     1      -0.927  -9.875  -1.718  1.00  0.00    -0.342 OA
ATOM     73  C   UNL     1       1.426 -10.245  -3.002  1.00  0.00    +0.167 C 
ATOM     74  C   UNL     1      -0.012 -10.660  -0.937  1.00  0.00    +0.178 C 
ATOM     75  C   UNL     1       1.125 -11.204  -1.837  1.00  0.00    +0.176 C 
BRANCH  71  76
ATOM     76  N   UNL     1       1.627  -7.827  -3.602  1.00  0.00    -0.321 NA
ATOM     77  H   UNL     1       1.015  -7.973  -4.413  1.00  0.00    +0.119 HD
ATOM     78  H   UNL     1       1.376  -6.879  -3.280  1.00  0.00    +0.119 HD
ENDBRANCH  71  76
BRANCH  73  79
ATOM     79  O   UNL     1       2.790 -10.419  -3.422  1.00  0.00    -0.388 OA
ATOM     80  H   UNL     1       3.153 -11.100  -2.822  1.00  0.00    +0.211 HD
ENDBRANCH  73  79
BRANCH  74  81
ATOM     81  C   UNL     1      -0.812 -11.746  -0.207  1.00  0.00    +0.191 C 
BRANCH  81  82
ATOM     82  O   UNL     1      -2.146 -11.306   0.064  1.00  0.00    -0.394 OA
ATOM     83  H   UNL     1      -2.071 -10.463   0.547  1.00  0.00    +0.210 HD
ENDBRANCH  81  82
ENDBRANCH  74  81
BRANCH  75  84
ATOM     84  O   UNL     1       0.884 -12.493  -2.417  1.00  0.00    -0.388 OA
ATOM     85  H   UNL     1       0.429 -13.036  -1.734  1.00  0.00    +0.211 HD
ENDBRANCH  75  84
ENDBRANCH  69  70
ENDBRANCH  63  69
BRANCH  64  86
ATOM     86  C   UNL     1      -1.605  -4.417  -4.783  1.00  0.00    +0.191 C 
BRANCH  86  87
ATOM     87  O   UNL     1      -2.754  -4.247  -5.621  1.00  0.00    -0.394 OA
ATOM     88  H   UNL     1      -2.684  -3.330  -5.954  1.00  0.00    +0.210 HD
ENDBRANCH  86  87
ENDBRANCH  64  86
BRANCH  65  89
ATOM     89  O   UNL     1       0.244  -5.299  -2.633  1.00  0.00    -0.388 OA
ATOM     90  H   UNL     1       0.684  -5.808  -1.922  1.00  0.00    +0.211 HD
ENDBRANCH  65  89
ENDBRANCH  59  60
ENDBRANCH   5  59
BRANCH   4  91
ATOM     91  N   UNL     1      -4.793  -6.829  -5.761  1.00  0.00    -0.321 NA
ATOM     92  H   UNL     1      -5.116  -6.852  -6.731  1.00  0.00    +0.119 HD
ATOM     93  H   UNL     1      -3.783  -6.987  -5.770  1.00  0.00    +0.119 HD
ENDBRANCH   4  91
TORSDOF 36
ENDMDL
MODEL 9
REMARK VINA RESULT:    -6.537     12.179     16.575
REMARK INTER + INTRA:         -22.029
REMARK INTER:                 -15.669
REMARK INTRA:                  -6.361
REMARK UNBOUND:                -5.555
REMARK SMILES N[C@@H]1[C@@H](O[C@@H]2[C@H](N)[C@H](O[C@@H]3O[C@H](CO)[C@@H](O)[C@H](O[C@@H]4O[C@@H](CO)[C@@H](O)[C@H](O)[C@H]4N)[C@H]3N)O[C@@H](CO[C@H]3O[C@@H](CO)[C@@H](O)[C@H](O)[C@H]3N)[C@H]2O[C@H]2O[C@@H](CO)[C@@H](O)[C@@H](O)[C@H]2N)O[C@H](CO)[C@H](O)[C@H]1O
REMARK SMILES IDX 33 1 47 2 5 3 6 4 8 5 32 6 34 7 35 8 36 9 38 10 41 11 37 12
REMARK SMILES IDX 43 13 45 14 39 15 40 16 42 18 44 20 46 22 48 25 49 26 58 27
REMARK SMILES IDX 50 28 56 29 51 30 54 31 59 32 57 35 52 37 53 38 55 40 4 42
REMARK SMILES IDX 3 43 2 44 60 45 66 46 61 47 64 48 1 49 67 52 62 54 63 55
REMARK SMILES IDX 65 57 9 59 10 60 30 61 11 62 17 63 12 64 15 65 31 66 18 69
REMARK SMILES IDX 19 70 28 71 20 72 26 73 21 74 24 75 29 76 27 79 22 81 23 82
REMARK SMILES IDX 25 84 13 86 14 87 16 89 7 91
REMARK H PARENT 40 17 42 19 44 21 46 23 46 24 59 33 59 34 57 36 53 39 55 41
REMARK H PARENT 1 50 1 51 67 53 63 56 65 58 31 67 31 68 29 77 29 78 27 80
REMARK H PARENT 23 83 25 85 14 88 16 90 7 92 7 93
ROOT
ATOM      1  C   UNL     1       7.832  -7.630  -4.442  1.00  0.00    +0.179 C 
ATOM      2  C   UNL     1       9.040  -8.551  -4.174  1.00  0.00    +0.183 C 
ATOM      3  C   UNL     1       8.788  -9.467  -2.960  1.00  0.00    +0.175 C 
ATOM      4  C   UNL     1       7.444 -10.209  -3.130  1.00  0.00    +0.140 C 
ATOM      5  C   UNL     1       6.319  -9.162  -3.366  1.00  0.00    +0.273 C 
ATOM      6  O   UNL     1       6.604  -8.378  -4.518  1.00  0.00    -0.342 OA
ENDROOT
BRANCH   1   7
ATOM      7  C   UNL     1       7.734  -6.452  -3.443  1.00  0.00    +0.198 C 
BRANCH   7   8
ATOM      8  O   UNL     1       8.805  -5.524  -3.636  1.00  0.00    -0.348 OA
BRANCH   8   9
ATOM      9  C   UNL     1       9.140  -4.806  -2.439  1.00  0.00    +0.270 C 
ATOM     10  C   UNL     1      10.561  -4.867  -0.485  1.00  0.00    +0.178 C 
ATOM     11  C   UNL     1       9.970  -3.461  -0.284  1.00  0.00    +0.176 C 
ATOM     12  O   UNL     1      10.099  -5.528  -1.670  1.00  0.00    -0.342 OA
ATOM     13  C   UNL     1      10.058  -2.607  -1.557  1.00  0.00    +0.167 C 
ATOM     14  C   UNL     1       9.684  -3.399  -2.830  1.00  0.00    +0.139 C 
BRANCH  10  15
ATOM     15  C   UNL     1      12.098  -4.922  -0.476  1.00  0.00    +0.191 C 
BRANCH  15  16
ATOM     16  O   UNL     1      12.619  -4.913   0.851  1.00  0.00    -0.394 OA
ATOM     17  H   UNL     1      12.757  -3.981   1.097  1.00  0.00    +0.210 HD
ENDBRANCH  15  16
ENDBRANCH  10  15
BRANCH  11  18
ATOM     18  O   UNL     1      10.551  -2.757   0.820  1.00  0.00    -0.388 OA
ATOM     19  H   UNL     1      10.147  -3.109   1.635  1.00  0.00    +0.211 HD
ENDBRANCH  11  18
BRANCH  13  20
ATOM     20  O   UNL     1       9.163  -1.487  -1.397  1.00  0.00    -0.388 OA
ATOM     21  H   UNL     1       9.607  -0.745  -1.851  1.00  0.00    +0.211 HD
ENDBRANCH  13  20
BRANCH  14  22
ATOM     22  N   UNL     1      10.869  -3.510  -3.734  1.00  0.00    -0.321 NA
ATOM     23  H   UNL     1      11.030  -4.524  -3.855  1.00  0.00    +0.119 HD
ATOM     24  H   UNL     1      10.548  -3.219  -4.673  1.00  0.00    +0.119 HD
ENDBRANCH  14  22
ENDBRANCH   8   9
ENDBRANCH   7   8
ENDBRANCH   1   7
BRANCH   2  25
ATOM     25  O   UNL     1      10.214  -7.757  -3.919  1.00  0.00    -0.342 OA
BRANCH  25  26
ATOM     26  C   UNL     1      11.173  -7.846  -4.980  1.00  0.00    +0.270 C 
ATOM     27  C   UNL     1      12.565  -7.430  -4.410  1.00  0.00    +0.139 C 
ATOM     28  O   UNL     1      10.799  -6.999  -6.063  1.00  0.00    -0.342 OA
ATOM     29  C   UNL     1      13.639  -7.455  -5.534  1.00  0.00    +0.167 C 
ATOM     30  C   UNL     1      11.743  -6.933  -7.141  1.00  0.00    +0.178 C 
ATOM     31  C   UNL     1      13.025  -7.758  -6.907  1.00  0.00    +0.176 C 
BRANCH  27  32
ATOM     32  N   UNL     1      12.495  -6.137  -3.680  1.00  0.00    -0.321 NA
ATOM     33  H   UNL     1      13.454  -5.783  -3.596  1.00  0.00    +0.119 HD
ATOM     34  H   UNL     1      12.041  -5.470  -4.308  1.00  0.00    +0.119 HD
ENDBRANCH  27  32
BRANCH  29  35
ATOM     35  O   UNL     1      14.381  -6.223  -5.644  1.00  0.00    -0.388 OA
ATOM     36  H   UNL     1      15.316  -6.485  -5.502  1.00  0.00    +0.211 HD
ENDBRANCH  29  35
BRANCH  30  37
ATOM     37  C   UNL     1      11.974  -5.450  -7.499  1.00  0.00    +0.191 C 
BRANCH  37  38
ATOM     38  O   UNL     1      11.962  -4.574  -6.374  1.00  0.00    -0.394 OA
ATOM     39  H   UNL     1      12.195  -5.112  -5.583  1.00  0.00    +0.210 HD
ENDBRANCH  37  38
ENDBRANCH  30  37
BRANCH  31  40
ATOM     40  O   UNL     1      14.011  -7.553  -7.924  1.00  0.00    -0.388 OA
ATOM     41  H   UNL     1      14.798  -7.160  -7.501  1.00  0.00    +0.211 HD
ENDBRANCH  31  40
ENDBRANCH  25  26
ENDBRANCH   2  25
BRANCH   3  42
ATOM     42  O   UNL     1       9.921 -10.354  -2.830  1.00  0.00    -0.343 OA
BRANCH  42  43
ATOM     43  C   UNL     1      10.633 -10.226  -1.594  1.00  0.00    +0.270 C 
ATOM     44  C   UNL     1      10.488 -11.575  -0.841  1.00  0.00    +0.139 C 
ATOM     45  O   UNL     1      10.070  -9.134  -0.861  1.00  0.00    -0.342 OA
ATOM     46  C   UNL     1      10.994 -11.455   0.604  1.00  0.00    +0.167 C 
ATOM     47  C   UNL     1      10.574  -8.971   0.468  1.00  0.00    +0.178 C 
ATOM     48  C   UNL     1      10.351 -10.250   1.295  1.00  0.00    +0.176 C 
BRANCH  44  49
ATOM     49  N   UNL     1      11.203 -12.673  -1.536  1.00  0.00    -0.321 NA
ATOM     50  H   UNL     1      11.934 -13.020  -0.914  1.00  0.00    +0.119 HD
ATOM     51  H   UNL     1      11.677 -12.257  -2.344  1.00  0.00    +0.119 HD
ENDBRANCH  44  49
BRANCH  46  52
ATOM     52  O   UNL     1      10.663 -12.650   1.336  1.00  0.00    -0.388 OA
ATOM     53  H   UNL     1      11.175 -13.362   0.901  1.00  0.00    +0.211 HD
ENDBRANCH  46  52
BRANCH  47  54
ATOM     54  C   UNL     1      12.021  -8.444   0.468  1.00  0.00    +0.191 C 
BRANCH  54  55
ATOM     55  O   UNL     1      12.307  -7.766   1.687  1.00  0.00    -0.394 OA
ATOM     56  H   UNL     1      12.831  -6.973   1.457  1.00  0.00    +0.210 HD
ENDBRANCH  54  55
ENDBRANCH  47  54
BRANCH  48  57
ATOM     57  O   UNL     1      10.837 -10.174   2.641  1.00  0.00    -0.388 OA
ATOM     58  H   UNL     1      11.799 -10.380   2.623  1.00  0.00    +0.211 HD
ENDBRANCH  48  57
ENDBRANCH  42  43
ENDBRANCH   3  42
BRANCH   5  59
ATOM     59  O   UNL     1       5.091  -9.874  -3.541  1.00  0.00    -0.320 OA
BRANCH  59  60
ATOM     60  C   UNL     1       3.966  -9.258  -2.912  1.00  0.00    +0.273 C 
ATOM     61  C   UNL     1       3.217  -8.301  -3.885  1.00  0.00    +0.140 C 
ATOM     62  O   UNL     1       3.114 -10.344  -2.518  1.00  0.00    -0.342 OA
ATOM     63  C   UNL     1       1.897  -7.838  -3.233  1.00  0.00    +0.174 C 
ATOM     64  C   UNL     1       1.927  -9.909  -1.836  1.00  0.00    +0.178 C 
ATOM     65  C   UNL     1       1.071  -9.035  -2.752  1.00  0.00    +0.176 C 
BRANCH  61  66
ATOM     66  N   UNL     1       4.007  -7.113  -4.268  1.00  0.00    -0.321 NA
ATOM     67  H   UNL     1       3.945  -6.992  -5.288  1.00  0.00    +0.119 HD
ATOM     68  H   UNL     1       5.002  -7.309  -4.079  1.00  0.00    +0.119 HD
ENDBRANCH  61  66
BRANCH  63  69
ATOM     69  O   UNL     1       1.087  -7.124  -4.189  1.00  0.00    -0.343 OA
BRANCH  69  70
ATOM     70  C   UNL     1       0.993  -5.728  -3.894  1.00  0.00    +0.270 C 
ATOM     71  C   UNL     1       1.022  -4.920  -5.225  1.00  0.00    +0.139 C 
ATOM     72  O   UNL     1      -0.190  -5.512  -3.110  1.00  0.00    -0.342 OA
ATOM     73  C   UNL     1       0.236  -3.624  -5.001  1.00  0.00    +0.167 C 
ATOM     74  C   UNL     1      -1.361  -5.285  -3.910  1.00  0.00    +0.178 C 
ATOM     75  C   UNL     1      -1.233  -3.945  -4.676  1.00  0.00    +0.176 C 
BRANCH  71  76
ATOM     76  N   UNL     1       2.396  -4.652  -5.725  1.00  0.00    -0.321 NA
ATOM     77  H   UNL     1       2.462  -5.128  -6.631  1.00  0.00    +0.119 HD
ATOM     78  H   UNL     1       2.455  -3.652  -5.974  1.00  0.00    +0.119 HD
ENDBRANCH  71  76
BRANCH  73  79
ATOM     79  O   UNL     1       0.293  -2.785  -6.168  1.00  0.00    -0.388 OA
ATOM     80  H   UNL     1       0.875  -3.261  -6.791  1.00  0.00    +0.211 HD
ENDBRANCH  73  79
BRANCH  74  81
ATOM     81  C   UNL     1      -2.592  -5.375  -2.998  1.00  0.00    +0.191 C 
BRANCH  81  82
ATOM     82  O   UNL     1      -2.493  -4.450  -1.911  1.00  0.00    -0.394 OA
ATOM     83  H   UNL     1      -2.276  -3.584  -2.299  1.00  0.00    +0.210 HD
ENDBRANCH  81  82
ENDBRANCH  74  81
BRANCH  75  84
ATOM     84  O   UNL     1      -1.764  -2.799  -3.997  1.00  0.00    -0.388 OA
ATOM     85  H   UNL     1      -1.037  -2.139  -3.933  1.00  0.00    +0.211 HD
ENDBRANCH  75  84
ENDBRANCH  69  70
ENDBRANCH  63  69
BRANCH  64  86
ATOM     86  C   UNL     1       1.173 -11.167  -1.394  1.00  0.00    +0.191 C 
BRANCH  86  87
ATOM     87  O   UNL     1       0.143 -11.461  -2.345  1.00  0.00    -0.394 OA
ATOM     88  H   UNL     1       0.618 -11.590  -3.191  1.00  0.00    +0.210 HD
ENDBRANCH  86  87
ENDBRANCH  64  86
BRANCH  65  89
ATOM     89  O   UNL     1      -0.090  -8.563  -2.058  1.00  0.00    -0.388 OA
ATOM     90  H   UNL     1       0.026  -7.594  -1.978  1.00  0.00    +0.211 HD
ENDBRANCH  65  89
ENDBRANCH  59  60
ENDBRANCH   5  59
BRANCH   4  91
ATOM     91  N   UNL     1       7.528 -11.216  -4.217  1.00  0.00    -0.321 NA
ATOM     92  H   UNL     1       8.309 -11.840  -4.004  1.00  0.00    +0.119 HD
ATOM     93  H   UNL     1       7.758 -10.721  -5.082  1.00  0.00    +0.119 HD
ENDBRANCH   4  91
TORSDOF 36
ENDMDL
