MODEL 1
REMARK VINA RESULT:    -7.706      0.000      0.000
REMARK INTER + INTRA:         -12.521
REMARK INTER:                 -11.309
REMARK INTRA:                  -1.212
REMARK UNBOUND:                -1.212
REMARK SMILES O=S(=O)(O)OC[C@@H]1O[C@H](O[C@H]2[C@@H]3OC[C@H]2O[C@@H](O)[C@H]3O)[C@@H](O)[C@H](O)[C@@H]1O
REMARK SMILES IDX 9 1 21 2 23 3 25 4 7 5 8 6 10 7 11 8 14 9 15 10 13 11 16 12
REMARK SMILES IDX 12 13 17 14 19 15 18 16 20 18 22 20 24 22 6 24 5 25 2 26
REMARK SMILES IDX 1 27 3 28 4 29 26 31
REMARK H PARENT 18 17 20 19 22 21 24 23 4 30 26 32
ROOT
ATOM      1  C   UNL     1       3.508   5.786  -7.342  1.00  0.00    +0.282 C 
ATOM      2  C   UNL     1       1.980   5.763  -7.541  1.00  0.00    +0.202 C 
ATOM      3  C   UNL     1       1.681   5.009  -8.826  1.00  0.00    +0.179 C 
ATOM      4  C   UNL     1       2.119   3.550  -8.671  1.00  0.00    +0.177 C 
ATOM      5  C   UNL     1       3.418   3.396  -7.844  1.00  0.00    +0.180 C 
ATOM      6  O   UNL     1       4.185   4.614  -7.794  1.00  0.00    -0.341 OA
ENDROOT
BRANCH   1   7
ATOM      7  O   UNL     1       3.766   6.088  -5.967  1.00  0.00    -0.341 OA
BRANCH   7   8
ATOM      8  C   UNL     1       4.991   6.787  -5.773  1.00  0.00    +0.184 C 
ATOM      9  C   UNL     1       6.488   8.037  -4.473  1.00  0.00    +0.195 C 
ATOM     10  C   UNL     1       5.381   6.993  -4.317  1.00  0.00    +0.179 C 
ATOM     11  O   UNL     1       6.113   8.845  -5.618  1.00  0.00    -0.370 OA
ATOM     12  O   UNL     1       4.255   7.466  -3.557  1.00  0.00    -0.342 OA
ATOM     13  C   UNL     1       4.900   8.259  -6.158  1.00  0.00    +0.184 C 
ATOM     14  C   UNL     1       3.686   8.702  -3.975  1.00  0.00    +0.279 C 
ATOM     15  C   UNL     1       3.667   8.902  -5.507  1.00  0.00    +0.202 C 
BRANCH  14  16
ATOM     16  O   UNL     1       4.394   9.767  -3.345  1.00  0.00    -0.366 OA
ATOM     17  H   UNL     1       4.527  10.424  -4.051  1.00  0.00    +0.213 HD
ENDBRANCH  14  16
BRANCH  15  18
ATOM     18  O   UNL     1       3.598  10.295  -5.839  1.00  0.00    -0.385 OA
ATOM     19  H   UNL     1       2.691  10.408  -6.198  1.00  0.00    +0.211 HD
ENDBRANCH  15  18
ENDBRANCH   7   8
ENDBRANCH   1   7
BRANCH   2  20
ATOM     20  O   UNL     1       1.443   7.093  -7.638  1.00  0.00    -0.385 OA
ATOM     21  H   UNL     1       0.690   7.036  -8.257  1.00  0.00    +0.211 HD
ENDBRANCH   2  20
BRANCH   3  22
ATOM     22  O   UNL     1       0.274   5.053  -9.116  1.00  0.00    -0.387 OA
ATOM     23  H   UNL     1      -0.032   5.906  -8.743  1.00  0.00    +0.211 HD
ENDBRANCH   3  22
BRANCH   5  24
ATOM     24  C   UNL     1       3.233   2.779  -6.446  1.00  0.00    +0.220 C 
BRANCH  24  25
ATOM     25  O   UNL     1       3.461   1.374  -6.537  1.00  0.00    -0.245 OA
BRANCH  25  26
ATOM     26  S   UNL     1       2.503   0.393  -5.669  1.00  0.00    +0.397 S 
ATOM     27  O   UNL     1       2.344   0.916  -4.331  1.00  0.00    -0.169 OA
ATOM     28  O   UNL     1       2.905  -0.972  -5.920  1.00  0.00    -0.169 OA
BRANCH  26  29
ATOM     29  O   UNL     1       1.091   0.550  -6.426  1.00  0.00    -0.264 OA
ATOM     30  H   UNL     1       0.639  -0.316  -6.370  1.00  0.00    +0.236 HD
ENDBRANCH  26  29
ENDBRANCH  25  26
ENDBRANCH  24  25
ENDBRANCH   5  24
BRANCH   4  31
ATOM     31  O   UNL     1       1.044   2.796  -8.101  1.00  0.00    -0.387 OA
ATOM     32  H   UNL     1       1.348   1.861  -8.133  1.00  0.00    +0.211 HD
ENDBRANCH   4  31
TORSDOF 11
ENDMDL
MODEL 2
REMARK VINA RESULT:    -7.323      1.508      2.027
REMARK INTER + INTRA:         -11.960
REMARK INTER:                 -10.863
REMARK INTRA:                  -1.097
REMARK UNBOUND:                -1.212
REMARK SMILES O=S(=O)(O)OC[C@@H]1O[C@H](O[C@H]2[C@@H]3OC[C@H]2O[C@@H](O)[C@H]3O)[C@@H](O)[C@H](O)[C@@H]1O
REMARK SMILES IDX 9 1 21 2 23 3 25 4 7 5 8 6 10 7 11 8 14 9 15 10 13 11 16 12
REMARK SMILES IDX 12 13 17 14 19 15 18 16 20 18 22 20 24 22 6 24 5 25 2 26
REMARK SMILES IDX 1 27 3 28 4 29 26 31
REMARK H PARENT 18 17 20 19 22 21 24 23 4 30 26 32
ROOT
ATOM      1  C   UNL     1       3.743   5.385  -7.332  1.00  0.00    +0.282 C 
ATOM      2  C   UNL     1       2.261   5.078  -7.045  1.00  0.00    +0.202 C 
ATOM      3  C   UNL     1       1.813   3.976  -7.990  1.00  0.00    +0.179 C 
ATOM      4  C   UNL     1       2.588   2.694  -7.676  1.00  0.00    +0.177 C 
ATOM      5  C   UNL     1       4.058   2.962  -7.273  1.00  0.00    +0.180 C 
ATOM      6  O   UNL     1       4.521   4.252  -7.716  1.00  0.00    -0.341 OA
ENDROOT
BRANCH   1   7
ATOM      7  O   UNL     1       4.275   6.074  -6.198  1.00  0.00    -0.341 OA
BRANCH   7   8
ATOM      8  C   UNL     1       4.482   7.462  -6.438  1.00  0.00    +0.184 C 
ATOM      9  C   UNL     1       5.650   9.473  -6.141  1.00  0.00    +0.195 C 
ATOM     10  C   UNL     1       5.883   7.961  -6.116  1.00  0.00    +0.179 C 
ATOM     11  O   UNL     1       4.293   9.672  -5.666  1.00  0.00    -0.370 OA
ATOM     12  O   UNL     1       6.308   7.471  -4.832  1.00  0.00    -0.342 OA
ATOM     13  C   UNL     1       3.730   8.352  -5.455  1.00  0.00    +0.184 C 
ATOM     14  C   UNL     1       5.507   7.846  -3.717  1.00  0.00    +0.279 C 
ATOM     15  C   UNL     1       3.992   7.889  -4.015  1.00  0.00    +0.202 C 
BRANCH  14  16
ATOM     16  O   UNL     1       5.955   9.112  -3.238  1.00  0.00    -0.366 OA
ATOM     17  H   UNL     1       6.395   8.911  -2.392  1.00  0.00    +0.213 HD
ENDBRANCH  14  16
BRANCH  15  18
ATOM     18  O   UNL     1       3.313   8.745  -3.086  1.00  0.00    -0.385 OA
ATOM     19  H   UNL     1       2.530   9.061  -3.585  1.00  0.00    +0.211 HD
ENDBRANCH  15  18
ENDBRANCH   7   8
ENDBRANCH   1   7
BRANCH   2  20
ATOM     20  O   UNL     1       1.436   6.238  -7.248  1.00  0.00    -0.385 OA
ATOM     21  H   UNL     1       1.300   6.631  -6.363  1.00  0.00    +0.211 HD
ENDBRANCH   2  20
BRANCH   3  22
ATOM     22  O   UNL     1       0.405   3.727  -7.839  1.00  0.00    -0.387 OA
ATOM     23  H   UNL     1       0.013   4.608  -7.660  1.00  0.00    +0.211 HD
ENDBRANCH   3  22
BRANCH   5  24
ATOM     24  C   UNL     1       4.383   2.714  -5.789  1.00  0.00    +0.220 C 
BRANCH  24  25
ATOM     25  O   UNL     1       5.475   1.800  -5.712  1.00  0.00    -0.245 OA
BRANCH  25  26
ATOM     26  S   UNL     1       5.130   0.221  -5.561  1.00  0.00    +0.397 S 
ATOM     27  O   UNL     1       3.716   0.045  -5.322  1.00  0.00    -0.169 OA
ATOM     28  O   UNL     1       6.135  -0.384  -4.716  1.00  0.00    -0.169 OA
BRANCH  26  29
ATOM     29  O   UNL     1       5.450  -0.333  -7.038  1.00  0.00    -0.264 OA
ATOM     30  H   UNL     1       6.424  -0.380  -7.121  1.00  0.00    +0.236 HD
ENDBRANCH  26  29
ENDBRANCH  25  26
ENDBRANCH  24  25
ENDBRANCH   5  24
BRANCH   4  31
ATOM     31  O   UNL     1       1.893   1.962  -6.661  1.00  0.00    -0.387 OA
ATOM     32  H   UNL     1       1.909   2.549  -5.872  1.00  0.00    +0.211 HD
ENDBRANCH   4  31
TORSDOF 11
ENDMDL
MODEL 3
REMARK VINA RESULT:    -6.970      7.679     12.309
REMARK INTER + INTRA:         -11.442
REMARK INTER:                 -10.416
REMARK INTRA:                  -1.026
REMARK UNBOUND:                -1.212
REMARK SMILES O=S(=O)(O)OC[C@@H]1O[C@H](O[C@H]2[C@@H]3OC[C@H]2O[C@@H](O)[C@H]3O)[C@@H](O)[C@H](O)[C@@H]1O
REMARK SMILES IDX 9 1 21 2 23 3 25 4 7 5 8 6 10 7 11 8 14 9 15 10 13 11 16 12
REMARK SMILES IDX 12 13 17 14 19 15 18 16 20 18 22 20 24 22 6 24 5 25 2 26
REMARK SMILES IDX 1 27 3 28 4 29 26 31
REMARK H PARENT 18 17 20 19 22 21 24 23 4 30 26 32
ROOT
ATOM      1  C   UNL     1       0.913  -5.493  -4.567  1.00  0.00    +0.282 C 
ATOM      2  C   UNL     1       2.372  -5.412  -4.079  1.00  0.00    +0.202 C 
ATOM      3  C   UNL     1       3.278  -5.385  -5.298  1.00  0.00    +0.179 C 
ATOM      4  C   UNL     1       3.016  -4.103  -6.095  1.00  0.00    +0.177 C 
ATOM      5  C   UNL     1       1.524  -3.691  -6.099  1.00  0.00    +0.180 C 
ATOM      6  O   UNL     1       0.651  -4.791  -5.780  1.00  0.00    -0.341 OA
ENDROOT
BRANCH   1   7
ATOM      7  O   UNL     1       0.068  -5.085  -3.487  1.00  0.00    -0.341 OA
BRANCH   7   8
ATOM      8  C   UNL     1      -0.505  -6.183  -2.784  1.00  0.00    +0.184 C 
ATOM      9  C   UNL     1      -2.117  -7.862  -2.507  1.00  0.00    +0.195 C 
ATOM     10  C   UNL     1      -1.440  -7.051  -3.613  1.00  0.00    +0.179 C 
ATOM     11  O   UNL     1      -2.192  -6.980  -1.358  1.00  0.00    -0.370 OA
ATOM     12  O   UNL     1      -2.356  -6.231  -4.360  1.00  0.00    -0.342 OA
ATOM     13  C   UNL     1      -1.523  -5.749  -1.736  1.00  0.00    +0.184 C 
ATOM     14  C   UNL     1      -3.205  -5.379  -3.598  1.00  0.00    +0.279 C 
ATOM     15  C   UNL     1      -2.530  -4.767  -2.351  1.00  0.00    +0.202 C 
BRANCH  14  16
ATOM     16  O   UNL     1      -4.369  -6.111  -3.223  1.00  0.00    -0.366 OA
ATOM     17  H   UNL     1      -4.305  -6.945  -3.722  1.00  0.00    +0.213 HD
ENDBRANCH  14  16
BRANCH  15  18
ATOM     18  O   UNL     1      -3.509  -4.384  -1.377  1.00  0.00    -0.385 OA
ATOM     19  H   UNL     1      -4.037  -3.692  -1.831  1.00  0.00    +0.211 HD
ENDBRANCH  15  18
ENDBRANCH   7   8
ENDBRANCH   1   7
BRANCH   2  20
ATOM     20  O   UNL     1       2.717  -6.543  -3.261  1.00  0.00    -0.385 OA
ATOM     21  H   UNL     1       3.689  -6.625  -3.308  1.00  0.00    +0.211 HD
ENDBRANCH   2  20
BRANCH   3  22
ATOM     22  O   UNL     1       4.659  -5.419  -4.898  1.00  0.00    -0.387 OA
ATOM     23  H   UNL     1       4.879  -4.489  -4.681  1.00  0.00    +0.211 HD
ENDBRANCH   3  22
BRANCH   5  24
ATOM     24  C   UNL     1       1.192  -2.436  -5.272  1.00  0.00    +0.220 C 
BRANCH  24  25
ATOM     25  O   UNL     1       1.113  -1.320  -6.155  1.00  0.00    -0.245 OA
BRANCH  25  26
ATOM     26  S   UNL     1       2.146  -0.091  -5.915  1.00  0.00    +0.397 S 
ATOM     27  O   UNL     1       3.416  -0.385  -6.539  1.00  0.00    -0.169 OA
ATOM     28  O   UNL     1       2.044   0.326  -4.535  1.00  0.00    -0.169 OA
BRANCH  26  29
ATOM     29  O   UNL     1       1.453   1.096  -6.754  1.00  0.00    -0.264 OA
ATOM     30  H   UNL     1       2.099   1.382  -7.431  1.00  0.00    +0.236 HD
ENDBRANCH  26  29
ENDBRANCH  25  26
ENDBRANCH  24  25
ENDBRANCH   5  24
BRANCH   4  31
ATOM     31  O   UNL     1       3.847  -3.055  -5.584  1.00  0.00    -0.387 OA
ATOM     32  H   UNL     1       3.372  -2.224  -5.811  1.00  0.00    +0.211 HD
ENDBRANCH   4  31
TORSDOF 11
ENDMDL
MODEL 4
REMARK VINA RESULT:    -6.821     12.013     15.373
REMARK INTER + INTRA:         -11.223
REMARK INTER:                  -9.952
REMARK INTRA:                  -1.271
REMARK UNBOUND:                -1.212
REMARK SMILES O=S(=O)(O)OC[C@@H]1O[C@H](O[C@H]2[C@@H]3OC[C@H]2O[C@@H](O)[C@H]3O)[C@@H](O)[C@H](O)[C@@H]1O
REMARK SMILES IDX 9 1 21 2 23 3 25 4 7 5 8 6 10 7 11 8 14 9 15 10 13 11 16 12
REMARK SMILES IDX 12 13 17 14 19 15 18 16 20 18 22 20 24 22 6 24 5 25 2 26
REMARK SMILES IDX 1 27 3 28 4 29 26 31
REMARK H PARENT 18 17 20 19 22 21 24 23 4 30 26 32
ROOT
ATOM      1  C   UNL     1      -1.714  -6.002  -2.995  1.00  0.00    +0.282 C 
ATOM      2  C   UNL     1      -2.773  -4.910  -3.242  1.00  0.00    +0.202 C 
ATOM      3  C   UNL     1      -2.549  -4.337  -4.631  1.00  0.00    +0.179 C 
ATOM      4  C   UNL     1      -2.803  -5.429  -5.675  1.00  0.00    +0.177 C 
ATOM      5  C   UNL     1      -2.325  -6.827  -5.213  1.00  0.00    +0.180 C 
ATOM      6  O   UNL     1      -1.352  -6.751  -4.154  1.00  0.00    -0.341 OA
ENDROOT
BRANCH   1   7
ATOM      7  O   UNL     1      -2.173  -6.821  -1.917  1.00  0.00    -0.341 OA
BRANCH   7   8
ATOM      8  C   UNL     1      -1.183  -7.731  -1.450  1.00  0.00    +0.184 C 
ATOM      9  C   UNL     1      -0.423  -9.882  -0.910  1.00  0.00    +0.195 C 
ATOM     10  C   UNL     1      -1.420  -9.183  -1.835  1.00  0.00    +0.179 C 
ATOM     11  O   UNL     1      -0.371  -9.076   0.296  1.00  0.00    -0.370 OA
ATOM     12  O   UNL     1      -2.788  -9.553  -1.584  1.00  0.00    -0.342 OA
ATOM     13  C   UNL     1      -1.222  -7.924   0.062  1.00  0.00    +0.184 C 
ATOM     14  C   UNL     1      -3.233  -9.441  -0.236  1.00  0.00    +0.279 C 
ATOM     15  C   UNL     1      -2.656  -8.224   0.520  1.00  0.00    +0.202 C 
BRANCH  14  16
ATOM     16  O   UNL     1      -2.916 -10.649   0.452  1.00  0.00    -0.366 OA
ATOM     17  H   UNL     1      -3.753 -10.920   0.868  1.00  0.00    +0.213 HD
ENDBRANCH  14  16
BRANCH  15  18
ATOM     18  O   UNL     1      -2.690  -8.440   1.937  1.00  0.00    -0.385 OA
ATOM     19  H   UNL     1      -2.495  -7.557   2.316  1.00  0.00    +0.211 HD
ENDBRANCH  15  18
ENDBRANCH   7   8
ENDBRANCH   1   7
BRANCH   2  20
ATOM     20  O   UNL     1      -2.671  -3.852  -2.273  1.00  0.00    -0.385 OA
ATOM     21  H   UNL     1      -2.434  -4.281  -1.428  1.00  0.00    +0.211 HD
ENDBRANCH   2  20
BRANCH   3  22
ATOM     22  O   UNL     1      -3.443  -3.237  -4.870  1.00  0.00    -0.387 OA
ATOM     23  H   UNL     1      -2.858  -2.480  -5.082  1.00  0.00    +0.211 HD
ENDBRANCH   3  22
BRANCH   5  24
ATOM     24  C   UNL     1      -3.450  -7.826  -4.888  1.00  0.00    +0.220 C 
BRANCH  24  25
ATOM     25  O   UNL     1      -3.953  -8.356  -6.112  1.00  0.00    -0.245 OA
BRANCH  25  26
ATOM     26  S   UNL     1      -5.518  -8.782  -6.166  1.00  0.00    +0.397 S 
ATOM     27  O   UNL     1      -5.859  -9.240  -7.494  1.00  0.00    -0.169 OA
ATOM     28  O   UNL     1      -6.288  -7.771  -5.479  1.00  0.00    -0.169 OA
BRANCH  26  29
ATOM     29  O   UNL     1      -5.550 -10.059  -5.186  1.00  0.00    -0.264 OA
ATOM     30  H   UNL     1      -5.543  -9.715  -4.270  1.00  0.00    +0.236 HD
ENDBRANCH  26  29
ENDBRANCH  25  26
ENDBRANCH  24  25
ENDBRANCH   5  24
BRANCH   4  31
ATOM     31  O   UNL     1      -4.193  -5.438  -6.017  1.00  0.00    -0.387 OA
ATOM     32  H   UNL     1      -4.656  -5.161  -5.194  1.00  0.00    +0.211 HD
ENDBRANCH   4  31
TORSDOF 11
ENDMDL
MODEL 5
REMARK VINA RESULT:    -6.699      9.962     12.892
REMARK INTER + INTRA:         -11.043
REMARK INTER:                  -9.264
REMARK INTRA:                  -1.779
REMARK UNBOUND:                -1.212
REMARK SMILES O=S(=O)(O)OC[C@@H]1O[C@H](O[C@H]2[C@@H]3OC[C@H]2O[C@@H](O)[C@H]3O)[C@@H](O)[C@H](O)[C@@H]1O
REMARK SMILES IDX 9 1 21 2 23 3 25 4 7 5 8 6 10 7 11 8 14 9 15 10 13 11 16 12
REMARK SMILES IDX 12 13 17 14 19 15 18 16 20 18 22 20 24 22 6 24 5 25 2 26
REMARK SMILES IDX 1 27 3 28 4 29 26 31
REMARK H PARENT 18 17 20 19 22 21 24 23 4 30 26 32
ROOT
ATOM      1  C   UNL     1       0.791  -4.715  -4.033  1.00  0.00    +0.282 C 
ATOM      2  C   UNL     1       1.087  -4.379  -5.508  1.00  0.00    +0.202 C 
ATOM      3  C   UNL     1       2.516  -3.870  -5.600  1.00  0.00    +0.179 C 
ATOM      4  C   UNL     1       3.479  -4.995  -5.211  1.00  0.00    +0.177 C 
ATOM      5  C   UNL     1       2.936  -5.885  -4.067  1.00  0.00    +0.180 C 
ATOM      6  O   UNL     1       1.904  -5.229  -3.305  1.00  0.00    -0.341 OA
ENDROOT
BRANCH   1   7
ATOM      7  O   UNL     1      -0.349  -5.578  -4.002  1.00  0.00    -0.341 OA
BRANCH   7   8
ATOM      8  C   UNL     1      -1.419  -5.057  -3.221  1.00  0.00    +0.184 C 
ATOM      9  C   UNL     1      -3.437  -5.276  -2.048  1.00  0.00    +0.195 C 
ATOM     10  C   UNL     1      -2.217  -6.103  -2.457  1.00  0.00    +0.179 C 
ATOM     11  O   UNL     1      -3.648  -4.325  -3.123  1.00  0.00    -0.370 OA
ATOM     12  O   UNL     1      -2.541  -7.212  -3.314  1.00  0.00    -0.342 OA
ATOM     13  C   UNL     1      -2.566  -4.522  -4.070  1.00  0.00    +0.184 C 
ATOM     14  C   UNL     1      -3.318  -6.912  -4.468  1.00  0.00    +0.279 C 
ATOM     15  C   UNL     1      -2.970  -5.559  -5.127  1.00  0.00    +0.202 C 
BRANCH  14  16
ATOM     16  O   UNL     1      -4.698  -6.950  -4.112  1.00  0.00    -0.366 OA
ATOM     17  H   UNL     1      -4.979  -7.859  -4.323  1.00  0.00    +0.213 HD
ENDBRANCH  14  16
BRANCH  15  18
ATOM     18  O   UNL     1      -4.072  -5.072  -5.905  1.00  0.00    -0.385 OA
ATOM     19  H   UNL     1      -4.697  -4.721  -5.235  1.00  0.00    +0.211 HD
ENDBRANCH  15  18
ENDBRANCH   7   8
ENDBRANCH   1   7
BRANCH   2  20
ATOM     20  O   UNL     1       0.193  -3.369  -6.006  1.00  0.00    -0.385 OA
ATOM     21  H   UNL     1      -0.418  -3.826  -6.617  1.00  0.00    +0.211 HD
ENDBRANCH   2  20
BRANCH   3  22
ATOM     22  O   UNL     1       2.809  -3.439  -6.940  1.00  0.00    -0.387 OA
ATOM     23  H   UNL     1       3.687  -3.826  -7.141  1.00  0.00    +0.211 HD
ENDBRANCH   3  22
BRANCH   5  24
ATOM     24  C   UNL     1       2.522  -7.307  -4.488  1.00  0.00    +0.220 C 
BRANCH  24  25
ATOM     25  O   UNL     1       2.282  -8.075  -3.311  1.00  0.00    -0.245 OA
BRANCH  25  26
ATOM     26  S   UNL     1       0.899  -8.921  -3.228  1.00  0.00    +0.397 S 
ATOM     27  O   UNL     1       0.218  -8.634  -1.986  1.00  0.00    -0.169 OA
ATOM     28  O   UNL     1       1.166 -10.272  -3.666  1.00  0.00    -0.169 OA
BRANCH  26  29
ATOM     29  O   UNL     1       0.036  -8.267  -4.420  1.00  0.00    -0.264 OA
ATOM     30  H   UNL     1       0.664  -8.044  -5.137  1.00  0.00    +0.236 HD
ENDBRANCH  26  29
ENDBRANCH  25  26
ENDBRANCH  24  25
ENDBRANCH   5  24
BRANCH   4  31
ATOM     31  O   UNL     1       3.791  -5.770  -6.374  1.00  0.00    -0.387 OA
ATOM     32  H   UNL     1       3.974  -6.673  -6.033  1.00  0.00    +0.211 HD
ENDBRANCH   4  31
TORSDOF 11
ENDMDL
MODEL 6
REMARK VINA RESULT:    -6.451     12.213     14.914
REMARK INTER + INTRA:         -10.679
REMARK INTER:                  -9.313
REMARK INTRA:                  -1.367
REMARK UNBOUND:                -1.212
REMARK SMILES O=S(=O)(O)OC[C@@H]1O[C@H](O[C@H]2[C@@H]3OC[C@H]2O[C@@H](O)[C@H]3O)[C@@H](O)[C@H](O)[C@@H]1O
REMARK SMILES IDX 9 1 21 2 23 3 25 4 7 5 8 6 10 7 11 8 14 9 15 10 13 11 16 12
REMARK SMILES IDX 12 13 17 14 19 15 18 16 20 18 22 20 24 22 6 24 5 25 2 26
REMARK SMILES IDX 1 27 3 28 4 29 26 31
REMARK H PARENT 18 17 20 19 22 21 24 23 4 30 26 32
ROOT
ATOM      1  C   UNL     1       0.069  -9.265  -2.246  1.00  0.00    +0.282 C 
ATOM      2  C   UNL     1       0.876  -9.497  -0.954  1.00  0.00    +0.202 C 
ATOM      3  C   UNL     1       1.926 -10.558  -1.235  1.00  0.00    +0.179 C 
ATOM      4  C   UNL     1       2.916 -10.028  -2.276  1.00  0.00    +0.177 C 
ATOM      5  C   UNL     1       2.241  -9.151  -3.358  1.00  0.00    +0.180 C 
ATOM      6  O   UNL     1       0.824  -9.388  -3.449  1.00  0.00    -0.341 OA
ENDROOT
BRANCH   1   7
ATOM      7  O   UNL     1      -0.596  -8.004  -2.125  1.00  0.00    -0.341 OA
BRANCH   7   8
ATOM      8  C   UNL     1      -1.694  -7.867  -3.022  1.00  0.00    +0.184 C 
ATOM      9  C   UNL     1      -3.118  -6.604  -4.390  1.00  0.00    +0.195 C 
ATOM     10  C   UNL     1      -1.689  -6.588  -3.843  1.00  0.00    +0.179 C 
ATOM     11  O   UNL     1      -3.928  -7.227  -3.360  1.00  0.00    -0.370 OA
ATOM     12  O   UNL     1      -1.413  -5.452  -3.003  1.00  0.00    -0.342 OA
ATOM     13  C   UNL     1      -3.018  -7.631  -2.305  1.00  0.00    +0.184 C 
ATOM     14  C   UNL     1      -2.331  -5.217  -1.941  1.00  0.00    +0.279 C 
ATOM     15  C   UNL     1      -2.869  -6.503  -1.275  1.00  0.00    +0.202 C 
BRANCH  14  16
ATOM     16  O   UNL     1      -3.409  -4.426  -2.435  1.00  0.00    -0.366 OA
ATOM     17  H   UNL     1      -3.065  -4.028  -3.254  1.00  0.00    +0.213 HD
ENDBRANCH  14  16
BRANCH  15  18
ATOM     18  O   UNL     1      -4.121  -6.255  -0.623  1.00  0.00    -0.385 OA
ATOM     19  H   UNL     1      -4.791  -6.468  -1.308  1.00  0.00    +0.211 HD
ENDBRANCH  15  18
ENDBRANCH   7   8
ENDBRANCH   1   7
BRANCH   2  20
ATOM     20  O   UNL     1       0.031  -9.941   0.121  1.00  0.00    -0.385 OA
ATOM     21  H   UNL     1      -0.420  -9.142   0.458  1.00  0.00    +0.211 HD
ENDBRANCH   2  20
BRANCH   3  22
ATOM     22  O   UNL     1       2.637 -10.892  -0.031  1.00  0.00    -0.387 OA
ATOM     23  H   UNL     1       2.796 -10.032   0.412  1.00  0.00    +0.211 HD
ENDBRANCH   3  22
BRANCH   5  24
ATOM     24  C   UNL     1       2.568  -7.649  -3.277  1.00  0.00    +0.220 C 
BRANCH  24  25
ATOM     25  O   UNL     1       1.831  -6.970  -4.291  1.00  0.00    -0.245 OA
BRANCH  25  26
ATOM     26  S   UNL     1       1.976  -5.356  -4.381  1.00  0.00    +0.397 S 
ATOM     27  O   UNL     1       1.017  -4.826  -5.324  1.00  0.00    -0.169 OA
ATOM     28  O   UNL     1       3.382  -5.029  -4.447  1.00  0.00    -0.169 OA
BRANCH  26  29
ATOM     29  O   UNL     1       1.518  -4.897  -2.908  1.00  0.00    -0.264 OA
ATOM     30  H   UNL     1       2.007  -4.075  -2.700  1.00  0.00    +0.236 HD
ENDBRANCH  26  29
ENDBRANCH  25  26
ENDBRANCH  24  25
ENDBRANCH   5  24
BRANCH   4  31
ATOM     31  O   UNL     1       3.965  -9.319  -1.606  1.00  0.00    -0.387 OA
ATOM     32  H   UNL     1       3.599  -9.110  -0.717  1.00  0.00    +0.211 HD
ENDBRANCH   4  31
TORSDOF 11
ENDMDL
MODEL 7
REMARK VINA RESULT:    -6.425      9.935     13.501
REMARK INTER + INTRA:         -10.642
REMARK INTER:                  -9.482
REMARK INTRA:                  -1.160
REMARK UNBOUND:                -1.212
REMARK SMILES O=S(=O)(O)OC[C@@H]1O[C@H](O[C@H]2[C@@H]3OC[C@H]2O[C@@H](O)[C@H]3O)[C@@H](O)[C@H](O)[C@@H]1O
REMARK SMILES IDX 9 1 21 2 23 3 25 4 7 5 8 6 10 7 11 8 14 9 15 10 13 11 16 12
REMARK SMILES IDX 12 13 17 14 19 15 18 16 20 18 22 20 24 22 6 24 5 25 2 26
REMARK SMILES IDX 1 27 3 28 4 29 26 31
REMARK H PARENT 18 17 20 19 22 21 24 23 4 30 26 32
ROOT
ATOM      1  C   UNL     1      -0.246  -5.152  -3.516  1.00  0.00    +0.282 C 
ATOM      2  C   UNL     1      -0.463  -4.681  -4.967  1.00  0.00    +0.202 C 
ATOM      3  C   UNL     1       0.465  -3.508  -5.229  1.00  0.00    +0.179 C 
ATOM      4  C   UNL     1       1.918  -3.983  -5.142  1.00  0.00    +0.177 C 
ATOM      5  C   UNL     1       2.138  -5.049  -4.042  1.00  0.00    +0.180 C 
ATOM      6  O   UNL     1       1.096  -5.034  -3.048  1.00  0.00    -0.341 OA
ENDROOT
BRANCH   1   7
ATOM      7  O   UNL     1      -0.766  -6.479  -3.404  1.00  0.00    -0.341 OA
BRANCH   7   8
ATOM      8  C   UNL     1      -0.517  -7.068  -2.132  1.00  0.00    +0.184 C 
ATOM      9  C   UNL     1      -0.793  -8.760  -0.533  1.00  0.00    +0.195 C 
ATOM     10  C   UNL     1      -0.822  -8.556  -2.048  1.00  0.00    +0.179 C 
ATOM     11  O   UNL     1      -1.281  -7.520   0.043  1.00  0.00    -0.370 OA
ATOM     12  O   UNL     1      -2.104  -8.839  -2.637  1.00  0.00    -0.342 OA
ATOM     13  C   UNL     1      -1.504  -6.609  -1.064  1.00  0.00    +0.184 C 
ATOM     14  C   UNL     1      -3.226  -8.190  -2.049  1.00  0.00    +0.279 C 
ATOM     15  C   UNL     1      -2.943  -6.745  -1.579  1.00  0.00    +0.202 C 
BRANCH  14  16
ATOM     16  O   UNL     1      -3.695  -8.982  -0.961  1.00  0.00    -0.366 OA
ATOM     17  H   UNL     1      -4.121  -9.749  -1.383  1.00  0.00    +0.213 HD
ENDBRANCH  14  16
BRANCH  15  18
ATOM     18  O   UNL     1      -3.875  -6.347  -0.565  1.00  0.00    -0.385 OA
ATOM     19  H   UNL     1      -3.304  -6.046   0.175  1.00  0.00    +0.211 HD
ENDBRANCH  15  18
ENDBRANCH   7   8
ENDBRANCH   1   7
BRANCH   2  20
ATOM     20  O   UNL     1      -1.822  -4.265  -5.186  1.00  0.00    -0.385 OA
ATOM     21  H   UNL     1      -2.056  -3.694  -4.428  1.00  0.00    +0.211 HD
ENDBRANCH   2  20
BRANCH   3  22
ATOM     22  O   UNL     1       0.225  -2.960  -6.536  1.00  0.00    -0.387 OA
ATOM     23  H   UNL     1       1.019  -3.200  -7.059  1.00  0.00    +0.211 HD
ENDBRANCH   3  22
BRANCH   5  24
ATOM     24  C   UNL     1       2.417  -6.473  -4.559  1.00  0.00    +0.220 C 
BRANCH  24  25
ATOM     25  O   UNL     1       3.685  -6.894  -4.062  1.00  0.00    -0.245 OA
BRANCH  25  26
ATOM     26  S   UNL     1       4.989  -6.629  -4.992  1.00  0.00    +0.397 S 
ATOM     27  O   UNL     1       4.576  -6.221  -6.315  1.00  0.00    -0.169 OA
ATOM     28  O   UNL     1       5.928  -7.706  -4.775  1.00  0.00    -0.169 OA
BRANCH  26  29
ATOM     29  O   UNL     1       5.656  -5.352  -4.273  1.00  0.00    -0.264 OA
ATOM     30  H   UNL     1       6.242  -5.696  -3.568  1.00  0.00    +0.236 HD
ENDBRANCH  26  29
ENDBRANCH  25  26
ENDBRANCH  24  25
ENDBRANCH   5  24
BRANCH   4  31
ATOM     31  O   UNL     1       2.333  -4.463  -6.426  1.00  0.00    -0.387 OA
ATOM     32  H   UNL     1       1.848  -3.902  -7.072  1.00  0.00    +0.211 HD
ENDBRANCH   4  31
TORSDOF 11
ENDMDL
MODEL 8
REMARK VINA RESULT:    -6.346      2.368      4.486
REMARK INTER + INTRA:         -10.526
REMARK INTER:                  -9.520
REMARK INTRA:                  -1.007
REMARK UNBOUND:                -1.212
REMARK SMILES O=S(=O)(O)OC[C@@H]1O[C@H](O[C@H]2[C@@H]3OC[C@H]2O[C@@H](O)[C@H]3O)[C@@H](O)[C@H](O)[C@@H]1O
REMARK SMILES IDX 9 1 21 2 23 3 25 4 7 5 8 6 10 7 11 8 14 9 15 10 13 11 16 12
REMARK SMILES IDX 12 13 17 14 19 15 18 16 20 18 22 20 24 22 6 24 5 25 2 26
REMARK SMILES IDX 1 27 3 28 4 29 26 31
REMARK H PARENT 18 17 20 19 22 21 24 23 4 30 26 32
ROOT
ATOM      1  C   UNL     1       3.477   5.464  -5.524  1.00  0.00    +0.282 C 
ATOM      2  C   UNL     1       4.360   4.299  -5.034  1.00  0.00    +0.202 C 
ATOM      3  C   UNL     1       3.619   3.000  -5.297  1.00  0.00    +0.179 C 
ATOM      4  C   UNL     1       3.450   2.809  -6.807  1.00  0.00    +0.177 C 
ATOM      5  C   UNL     1       3.187   4.138  -7.556  1.00  0.00    +0.180 C 
ATOM      6  O   UNL     1       2.697   5.172  -6.682  1.00  0.00    -0.341 OA
ENDROOT
BRANCH   1   7
ATOM      7  O   UNL     1       4.317   6.611  -5.686  1.00  0.00    -0.341 OA
BRANCH   7   8
ATOM      8  C   UNL     1       3.821   7.762  -5.011  1.00  0.00    +0.184 C 
ATOM      9  C   UNL     1       3.725  10.074  -4.637  1.00  0.00    +0.195 C 
ATOM     10  C   UNL     1       4.027   9.073  -5.753  1.00  0.00    +0.179 C 
ATOM     11  O   UNL     1       4.170   9.443  -3.408  1.00  0.00    -0.370 OA
ATOM     12  O   UNL     1       5.375   9.162  -6.249  1.00  0.00    -0.342 OA
ATOM     13  C   UNL     1       4.630   8.114  -3.768  1.00  0.00    +0.184 C 
ATOM     14  C   UNL     1       6.410   9.112  -5.273  1.00  0.00    +0.279 C 
ATOM     15  C   UNL     1       6.127   8.145  -4.102  1.00  0.00    +0.202 C 
BRANCH  14  16
ATOM     16  O   UNL     1       6.641  10.430  -4.783  1.00  0.00    -0.366 OA
ATOM     17  H   UNL     1       7.204  10.304  -3.998  1.00  0.00    +0.213 HD
ENDBRANCH  14  16
BRANCH  15  18
ATOM     18  O   UNL     1       6.889   8.510  -2.944  1.00  0.00    -0.385 OA
ATOM     19  H   UNL     1       7.818   8.500  -3.259  1.00  0.00    +0.211 HD
ENDBRANCH  15  18
ENDBRANCH   7   8
ENDBRANCH   1   7
BRANCH   2  20
ATOM     20  O   UNL     1       4.640   4.408  -3.628  1.00  0.00    -0.385 OA
ATOM     21  H   UNL     1       5.569   4.126  -3.515  1.00  0.00    +0.211 HD
ENDBRANCH   2  20
BRANCH   3  22
ATOM     22  O   UNL     1       4.352   1.886  -4.759  1.00  0.00    -0.387 OA
ATOM     23  H   UNL     1       3.928   1.094  -5.151  1.00  0.00    +0.211 HD
ENDBRANCH   3  22
BRANCH   5  24
ATOM     24  C   UNL     1       4.350   4.633  -8.434  1.00  0.00    +0.220 C 
BRANCH  24  25
ATOM     25  O   UNL     1       3.970   5.870  -9.033  1.00  0.00    -0.245 OA
BRANCH  25  26
ATOM     26  S   UNL     1       3.223   5.817 -10.473  1.00  0.00    +0.397 S 
ATOM     27  O   UNL     1       1.810   6.068 -10.306  1.00  0.00    -0.169 OA
ATOM     28  O   UNL     1       3.721   4.671 -11.200  1.00  0.00    -0.169 OA
BRANCH  26  29
ATOM     29  O   UNL     1       3.860   7.089 -11.226  1.00  0.00    -0.264 OA
ATOM     30  H   UNL     1       4.775   6.845 -11.474  1.00  0.00    +0.236 HD
ENDBRANCH  26  29
ENDBRANCH  25  26
ENDBRANCH  24  25
ENDBRANCH   5  24
BRANCH   4  31
ATOM     31  O   UNL     1       4.602   2.135  -7.326  1.00  0.00    -0.387 OA
ATOM     32  H   UNL     1       4.266   1.262  -7.629  1.00  0.00    +0.211 HD
ENDBRANCH   4  31
TORSDOF 11
ENDMDL
MODEL 9
REMARK VINA RESULT:    -6.340     10.598     14.474
REMARK INTER + INTRA:         -10.517
REMARK INTER:                  -9.590
REMARK INTRA:                  -0.927
REMARK UNBOUND:                -1.212
REMARK SMILES O=S(=O)(O)OC[C@@H]1O[C@H](O[C@H]2[C@@H]3OC[C@H]2O[C@@H](O)[C@H]3O)[C@@H](O)[C@H](O)[C@@H]1O
REMARK SMILES IDX 9 1 21 2 23 3 25 4 7 5 8 6 10 7 11 8 14 9 15 10 13 11 16 12
REMARK SMILES IDX 12 13 17 14 19 15 18 16 20 18 22 20 24 22 6 24 5 25 2 26
REMARK SMILES IDX 1 27 3 28 4 29 26 31
REMARK H PARENT 18 17 20 19 22 21 24 23 4 30 26 32
ROOT
ATOM      1  C   UNL     1      -1.738  -6.330  -2.821  1.00  0.00    +0.282 C 
ATOM      2  C   UNL     1      -2.568  -5.878  -4.039  1.00  0.00    +0.202 C 
ATOM      3  C   UNL     1      -2.477  -4.364  -4.138  1.00  0.00    +0.179 C 
ATOM      4  C   UNL     1      -1.029  -3.962  -4.427  1.00  0.00    +0.177 C 
ATOM      5  C   UNL     1       0.003  -4.858  -3.700  1.00  0.00    +0.180 C 
ATOM      6  O   UNL     1      -0.570  -5.550  -2.574  1.00  0.00    -0.341 OA
ENDROOT
BRANCH   1   7
ATOM      7  O   UNL     1      -1.461  -7.725  -2.975  1.00  0.00    -0.341 OA
BRANCH   7   8
ATOM      8  C   UNL     1      -0.550  -8.221  -1.999  1.00  0.00    +0.184 C 
ATOM      9  C   UNL     1       0.369  -9.937  -0.694  1.00  0.00    +0.195 C 
ATOM     10  C   UNL     1      -0.337  -9.726  -2.034  1.00  0.00    +0.179 C 
ATOM     11  O   UNL     1      -0.183  -8.943   0.206  1.00  0.00    -0.370 OA
ATOM     12  O   UNL     1      -1.600 -10.410  -2.127  1.00  0.00    -0.342 OA
ATOM     13  C   UNL     1      -1.100  -8.137  -0.580  1.00  0.00    +0.184 C 
ATOM     14  C   UNL     1      -2.519 -10.182  -1.064  1.00  0.00    +0.279 C 
ATOM     15  C   UNL     1      -2.512  -8.735  -0.522  1.00  0.00    +0.202 C 
BRANCH  14  16
ATOM     16  O   UNL     1      -2.243 -11.106  -0.014  1.00  0.00    -0.366 OA
ATOM     17  H   UNL     1      -1.716 -10.597   0.627  1.00  0.00    +0.213 HD
ENDBRANCH  14  16
BRANCH  15  18
ATOM     18  O   UNL     1      -3.018  -8.690   0.818  1.00  0.00    -0.385 OA
ATOM     19  H   UNL     1      -2.937  -9.616   1.133  1.00  0.00    +0.211 HD
ENDBRANCH  15  18
ENDBRANCH   7   8
ENDBRANCH   1   7
BRANCH   2  20
ATOM     20  O   UNL     1      -3.947  -6.261  -3.906  1.00  0.00    -0.385 OA
ATOM     21  H   UNL     1      -4.343  -6.157  -4.794  1.00  0.00    +0.211 HD
ENDBRANCH   2  20
BRANCH   3  22
ATOM     22  O   UNL     1      -3.323  -3.880  -5.194  1.00  0.00    -0.387 OA
ATOM     23  H   UNL     1      -2.728  -3.355  -5.771  1.00  0.00    +0.211 HD
ENDBRANCH   3  22
BRANCH   5  24
ATOM     24  C   UNL     1       0.800  -5.808  -4.612  1.00  0.00    +0.220 C 
BRANCH  24  25
ATOM     25  O   UNL     1       2.186  -5.504  -4.481  1.00  0.00    -0.245 OA
BRANCH  25  26
ATOM     26  S   UNL     1       2.952  -4.888  -5.773  1.00  0.00    +0.397 S 
ATOM     27  O   UNL     1       2.052  -4.041  -6.522  1.00  0.00    -0.169 OA
ATOM     28  O   UNL     1       3.712  -5.947  -6.398  1.00  0.00    -0.169 OA
BRANCH  26  29
ATOM     29  O   UNL     1       4.057  -3.941  -5.086  1.00  0.00    -0.264 OA
ATOM     30  H   UNL     1       3.690  -3.034  -5.078  1.00  0.00    +0.236 HD
ENDBRANCH  26  29
ENDBRANCH  25  26
ENDBRANCH  24  25
ENDBRANCH   5  24
BRANCH   4  31
ATOM     31  O   UNL     1      -0.816  -3.962  -5.843  1.00  0.00    -0.387 OA
ATOM     32  H   UNL     1      -1.372  -4.700  -6.181  1.00  0.00    +0.211 HD
ENDBRANCH   4  31
TORSDOF 11
ENDMDL
