MODEL 1
REMARK VINA RESULT:    -8.360      0.000      0.000
REMARK INTER + INTRA:         -13.017
REMARK INTER:                 -12.270
REMARK INTRA:                  -0.747
REMARK UNBOUND:                -0.747
REMARK SMILES O=S(=O)(O)OC[C@@H]1O[C@H](O[C@H]2[C@@H]3OC[C@H]2O[C@@H](O)[C@H]3O)[C@@H](O)[C@H](O)[C@@H]1O
REMARK SMILES IDX 9 1 21 2 23 3 25 4 7 5 8 6 10 7 11 8 14 9 15 10 13 11 16 12
REMARK SMILES IDX 12 13 17 14 19 15 18 16 20 18 22 20 24 22 6 24 5 25 2 26
REMARK SMILES IDX 1 27 3 28 4 29 26 31
REMARK H PARENT 18 17 20 19 22 21 24 23 4 30 26 32
ROOT
ATOM      1  C   UNL     1       8.734  -6.705  -5.723  1.00  0.00    +0.282 C 
ATOM      2  C   UNL     1       7.927  -7.558  -4.726  1.00  0.00    +0.202 C 
ATOM      3  C   UNL     1       8.269  -7.095  -3.320  1.00  0.00    +0.179 C 
ATOM      4  C   UNL     1       7.798  -5.650  -3.135  1.00  0.00    +0.177 C 
ATOM      5  C   UNL     1       7.973  -4.790  -4.410  1.00  0.00    +0.180 C 
ATOM      6  O   UNL     1       8.937  -5.351  -5.321  1.00  0.00    -0.341 OA
ENDROOT
BRANCH   1   7
ATOM      7  O   UNL     1       8.111  -6.823  -7.005  1.00  0.00    -0.341 OA
BRANCH   7   8
ATOM      8  C   UNL     1       8.981  -6.483  -8.080  1.00  0.00    +0.184 C 
ATOM      9  C   UNL     1       9.976  -6.897 -10.161  1.00  0.00    +0.195 C 
ATOM     10  C   UNL     1       8.697  -7.212  -9.384  1.00  0.00    +0.179 C 
ATOM     11  O   UNL     1      11.033  -6.821  -9.171  1.00  0.00    -0.370 OA
ATOM     12  O   UNL     1       8.509  -8.618  -9.142  1.00  0.00    -0.342 OA
ATOM     13  C   UNL     1      10.402  -6.997  -7.877  1.00  0.00    +0.184 C 
ATOM     14  C   UNL     1       9.606  -9.309  -8.553  1.00  0.00    +0.279 C 
ATOM     15  C   UNL     1      10.377  -8.485  -7.498  1.00  0.00    +0.202 C 
BRANCH  14  16
ATOM     16  O   UNL     1      10.487  -9.736  -9.589  1.00  0.00    -0.366 OA
ATOM     17  H   UNL     1      10.131 -10.598  -9.872  1.00  0.00    +0.213 HD
ENDBRANCH  14  16
BRANCH  15  18
ATOM     18  O   UNL     1      11.713  -8.980  -7.340  1.00  0.00    -0.385 OA
ATOM     19  H   UNL     1      11.967  -9.267  -8.244  1.00  0.00    +0.211 HD
ENDBRANCH  15  18
ENDBRANCH   7   8
ENDBRANCH   1   7
BRANCH   2  20
ATOM     20  O   UNL     1       8.243  -8.955  -4.853  1.00  0.00    -0.385 OA
ATOM     21  H   UNL     1       9.136  -8.995  -5.249  1.00  0.00    +0.211 HD
ENDBRANCH   2  20
BRANCH   3  22
ATOM     22  O   UNL     1       7.624  -7.932  -2.345  1.00  0.00    -0.387 OA
ATOM     23  H   UNL     1       7.915  -7.576  -1.479  1.00  0.00    +0.211 HD
ENDBRANCH   3  22
BRANCH   5  24
ATOM     24  C   UNL     1       6.664  -4.408  -5.124  1.00  0.00    +0.220 C 
BRANCH  24  25
ATOM     25  O   UNL     1       6.048  -3.344  -4.402  1.00  0.00    -0.245 OA
BRANCH  25  26
ATOM     26  S   UNL     1       4.490  -3.516  -3.982  1.00  0.00    +0.397 S 
ATOM     27  O   UNL     1       3.687  -2.510  -4.639  1.00  0.00    -0.169 OA
ATOM     28  O   UNL     1       4.426  -3.741  -2.555  1.00  0.00    -0.169 OA
BRANCH  26  29
ATOM     29  O   UNL     1       4.123  -4.939  -4.637  1.00  0.00    -0.264 OA
ATOM     30  H   UNL     1       4.543  -5.626  -4.081  1.00  0.00    +0.236 HD
ENDBRANCH  26  29
ENDBRANCH  25  26
ENDBRANCH  24  25
ENDBRANCH   5  24
BRANCH   4  31
ATOM     31  O   UNL     1       6.438  -5.653  -2.689  1.00  0.00    -0.387 OA
ATOM     32  H   UNL     1       6.024  -6.418  -3.149  1.00  0.00    +0.211 HD
ENDBRANCH   4  31
TORSDOF 11
ENDMDL
MODEL 2
REMARK VINA RESULT:    -8.217      2.728      5.079
REMARK INTER + INTRA:         -12.807
REMARK INTER:                 -11.689
REMARK INTRA:                  -1.118
REMARK UNBOUND:                -0.747
REMARK SMILES O=S(=O)(O)OC[C@@H]1O[C@H](O[C@H]2[C@@H]3OC[C@H]2O[C@@H](O)[C@H]3O)[C@@H](O)[C@H](O)[C@@H]1O
REMARK SMILES IDX 9 1 21 2 23 3 25 4 7 5 8 6 10 7 11 8 14 9 15 10 13 11 16 12
REMARK SMILES IDX 12 13 17 14 19 15 18 16 20 18 22 20 24 22 6 24 5 25 2 26
REMARK SMILES IDX 1 27 3 28 4 29 26 31
REMARK H PARENT 18 17 20 19 22 21 24 23 4 30 26 32
ROOT
ATOM      1  C   UNL     1       7.874  -3.508  -6.666  1.00  0.00    +0.282 C 
ATOM      2  C   UNL     1       8.698  -2.219  -6.849  1.00  0.00    +0.202 C 
ATOM      3  C   UNL     1       7.940  -1.302  -7.794  1.00  0.00    +0.179 C 
ATOM      4  C   UNL     1       6.620  -0.883  -7.142  1.00  0.00    +0.177 C 
ATOM      5  C   UNL     1       5.973  -2.015  -6.309  1.00  0.00    +0.180 C 
ATOM      6  O   UNL     1       6.460  -3.318  -6.683  1.00  0.00    -0.341 OA
ENDROOT
BRANCH   1   7
ATOM      7  O   UNL     1       8.339  -4.160  -5.480  1.00  0.00    -0.341 OA
BRANCH   7   8
ATOM      8  C   UNL     1       8.617  -5.542  -5.680  1.00  0.00    +0.184 C 
ATOM      9  C   UNL     1       8.143  -7.821  -5.402  1.00  0.00    +0.195 C 
ATOM     10  C   UNL     1       7.431  -6.469  -5.460  1.00  0.00    +0.179 C 
ATOM     11  O   UNL     1       9.439  -7.561  -4.804  1.00  0.00    -0.370 OA
ATOM     12  O   UNL     1       6.749  -6.131  -4.239  1.00  0.00    -0.342 OA
ATOM     13  C   UNL     1       9.521  -6.126  -4.600  1.00  0.00    +0.184 C 
ATOM     14  C   UNL     1       7.519  -6.211  -3.044  1.00  0.00    +0.279 C 
ATOM     15  C   UNL     1       8.987  -5.759  -3.208  1.00  0.00    +0.202 C 
BRANCH  14  16
ATOM     16  O   UNL     1       7.463  -7.548  -2.553  1.00  0.00    -0.366 OA
ATOM     17  H   UNL     1       7.866  -7.500  -1.668  1.00  0.00    +0.213 HD
ENDBRANCH  14  16
BRANCH  15  18
ATOM     18  O   UNL     1       9.815  -6.336  -2.190  1.00  0.00    -0.385 OA
ATOM     19  H   UNL     1       9.435  -5.992  -1.353  1.00  0.00    +0.211 HD
ENDBRANCH  15  18
ENDBRANCH   7   8
ENDBRANCH   1   7
BRANCH   2  20
ATOM     20  O   UNL     1       9.995  -2.500  -7.402  1.00  0.00    -0.385 OA
ATOM     21  H   UNL     1       9.954  -2.228  -8.340  1.00  0.00    +0.211 HD
ENDBRANCH   2  20
BRANCH   3  22
ATOM     22  O   UNL     1       8.718  -0.129  -8.085  1.00  0.00    -0.387 OA
ATOM     23  H   UNL     1       9.651  -0.420  -8.003  1.00  0.00    +0.211 HD
ENDBRANCH   3  22
BRANCH   5  24
ATOM     24  C   UNL     1       6.007  -1.806  -4.784  1.00  0.00    +0.220 C 
BRANCH  24  25
ATOM     25  O   UNL     1       5.889  -3.077  -4.150  1.00  0.00    -0.245 OA
BRANCH  25  26
ATOM     26  S   UNL     1       4.397  -3.614  -3.804  1.00  0.00    +0.397 S 
ATOM     27  O   UNL     1       3.410  -2.672  -4.281  1.00  0.00    -0.169 OA
ATOM     28  O   UNL     1       4.396  -4.109  -2.446  1.00  0.00    -0.169 OA
BRANCH  26  29
ATOM     29  O   UNL     1       4.296  -4.933  -4.721  1.00  0.00    -0.264 OA
ATOM     30  H   UNL     1       3.407  -4.929  -5.131  1.00  0.00    +0.236 HD
ENDBRANCH  26  29
ENDBRANCH  25  26
ENDBRANCH  24  25
ENDBRANCH   5  24
BRANCH   4  31
ATOM     31  O   UNL     1       6.840   0.290  -6.349  1.00  0.00    -0.387 OA
ATOM     32  H   UNL     1       6.507   1.032  -6.901  1.00  0.00    +0.211 HD
ENDBRANCH   4  31
TORSDOF 11
ENDMDL
MODEL 3
REMARK VINA RESULT:    -7.819      2.983      6.812
REMARK INTER + INTRA:         -12.222
REMARK INTER:                 -11.067
REMARK INTRA:                  -1.155
REMARK UNBOUND:                -0.747
REMARK SMILES O=S(=O)(O)OC[C@@H]1O[C@H](O[C@H]2[C@@H]3OC[C@H]2O[C@@H](O)[C@H]3O)[C@@H](O)[C@H](O)[C@@H]1O
REMARK SMILES IDX 9 1 21 2 23 3 25 4 7 5 8 6 10 7 11 8 14 9 15 10 13 11 16 12
REMARK SMILES IDX 12 13 17 14 19 15 18 16 20 18 22 20 24 22 6 24 5 25 2 26
REMARK SMILES IDX 1 27 3 28 4 29 26 31
REMARK H PARENT 18 17 20 19 22 21 24 23 4 30 26 32
ROOT
ATOM      1  C   UNL     1       6.929  -4.504  -4.579  1.00  0.00    +0.282 C 
ATOM      2  C   UNL     1       8.434  -4.469  -4.247  1.00  0.00    +0.202 C 
ATOM      3  C   UNL     1       8.755  -5.672  -3.377  1.00  0.00    +0.179 C 
ATOM      4  C   UNL     1       8.519  -6.954  -4.180  1.00  0.00    +0.177 C 
ATOM      5  C   UNL     1       7.300  -6.856  -5.128  1.00  0.00    +0.180 C 
ATOM      6  O   UNL     1       6.386  -5.813  -4.739  1.00  0.00    -0.341 OA
ENDROOT
BRANCH   1   7
ATOM      7  O   UNL     1       6.712  -3.663  -5.716  1.00  0.00    -0.341 OA
BRANCH   7   8
ATOM      8  C   UNL     1       5.636  -2.749  -5.533  1.00  0.00    +0.184 C 
ATOM      9  C   UNL     1       4.303  -0.943  -6.208  1.00  0.00    +0.195 C 
ATOM     10  C   UNL     1       5.167  -2.056  -6.803  1.00  0.00    +0.179 C 
ATOM     11  O   UNL     1       4.928  -0.588  -4.947  1.00  0.00    -0.370 OA
ATOM     12  O   UNL     1       6.294  -1.564  -7.551  1.00  0.00    -0.342 OA
ATOM     13  C   UNL     1       6.045  -1.496  -4.769  1.00  0.00    +0.184 C 
ATOM     14  C   UNL     1       7.127  -0.619  -6.889  1.00  0.00    +0.279 C 
ATOM     15  C   UNL     1       7.318  -0.895  -5.381  1.00  0.00    +0.202 C 
BRANCH  14  16
ATOM     16  O   UNL     1       6.589   0.685  -7.091  1.00  0.00    -0.366 OA
ATOM     17  H   UNL     1       7.361   1.237  -7.308  1.00  0.00    +0.213 HD
ENDBRANCH  14  16
BRANCH  15  18
ATOM     18  O   UNL     1       7.687   0.304  -4.686  1.00  0.00    -0.385 OA
ATOM     19  H   UNL     1       7.031   0.966  -4.993  1.00  0.00    +0.211 HD
ENDBRANCH  15  18
ENDBRANCH   7   8
ENDBRANCH   1   7
BRANCH   2  20
ATOM     20  O   UNL     1       8.787  -3.267  -3.540  1.00  0.00    -0.385 OA
ATOM     21  H   UNL     1       8.872  -3.521  -2.600  1.00  0.00    +0.211 HD
ENDBRANCH   2  20
BRANCH   3  22
ATOM     22  O   UNL     1      10.126  -5.628  -2.948  1.00  0.00    -0.387 OA
ATOM     23  H   UNL     1      10.561  -5.000  -3.562  1.00  0.00    +0.211 HD
ENDBRANCH   3  22
BRANCH   5  24
ATOM     24  C   UNL     1       7.643  -6.788  -6.628  1.00  0.00    +0.220 C 
BRANCH  24  25
ATOM     25  O   UNL     1       7.839  -8.116  -7.107  1.00  0.00    -0.245 OA
BRANCH  25  26
ATOM     26  S   UNL     1       8.922  -8.339  -8.296  1.00  0.00    +0.397 S 
ATOM     27  O   UNL     1       9.214  -9.747  -8.440  1.00  0.00    -0.169 OA
ATOM     28  O   UNL     1       9.964  -7.348  -8.152  1.00  0.00    -0.169 OA
BRANCH  26  29
ATOM     29  O   UNL     1       8.092  -7.876  -9.595  1.00  0.00    -0.264 OA
ATOM     30  H   UNL     1       8.297  -6.930  -9.742  1.00  0.00    +0.236 HD
ENDBRANCH  26  29
ENDBRANCH  25  26
ENDBRANCH  24  25
ENDBRANCH   5  24
BRANCH   4  31
ATOM     31  O   UNL     1       9.714  -7.285  -4.897  1.00  0.00    -0.387 OA
ATOM     32  H   UNL     1       9.408  -7.825  -5.660  1.00  0.00    +0.211 HD
ENDBRANCH   4  31
TORSDOF 11
ENDMDL
MODEL 4
REMARK VINA RESULT:    -7.742      7.068      9.954
REMARK INTER + INTRA:         -12.109
REMARK INTER:                 -11.304
REMARK INTRA:                  -0.805
REMARK UNBOUND:                -0.747
REMARK SMILES O=S(=O)(O)OC[C@@H]1O[C@H](O[C@H]2[C@@H]3OC[C@H]2O[C@@H](O)[C@H]3O)[C@@H](O)[C@H](O)[C@@H]1O
REMARK SMILES IDX 9 1 21 2 23 3 25 4 7 5 8 6 10 7 11 8 14 9 15 10 13 11 16 12
REMARK SMILES IDX 12 13 17 14 19 15 18 16 20 18 22 20 24 22 6 24 5 25 2 26
REMARK SMILES IDX 1 27 3 28 4 29 26 31
REMARK H PARENT 18 17 20 19 22 21 24 23 4 30 26 32
ROOT
ATOM      1  C   UNL     1       5.371   1.141  -8.514  1.00  0.00    +0.282 C 
ATOM      2  C   UNL     1       5.680   0.351  -9.800  1.00  0.00    +0.202 C 
ATOM      3  C   UNL     1       5.355   1.237 -10.991  1.00  0.00    +0.179 C 
ATOM      4  C   UNL     1       6.292   2.448 -10.991  1.00  0.00    +0.177 C 
ATOM      5  C   UNL     1       6.604   2.969  -9.568  1.00  0.00    +0.180 C 
ATOM      6  O   UNL     1       5.626   2.542  -8.601  1.00  0.00    -0.341 OA
ENDROOT
BRANCH   1   7
ATOM      7  O   UNL     1       6.066   0.510  -7.435  1.00  0.00    -0.341 OA
BRANCH   7   8
ATOM      8  C   UNL     1       5.325  -0.553  -6.844  1.00  0.00    +0.184 C 
ATOM      9  C   UNL     1       4.441  -1.698  -4.999  1.00  0.00    +0.195 C 
ATOM     10  C   UNL     1       4.857  -0.288  -5.421  1.00  0.00    +0.179 C 
ATOM     11  O   UNL     1       5.341  -2.600  -5.693  1.00  0.00    -0.370 OA
ATOM     12  O   UNL     1       5.932   0.250  -4.631  1.00  0.00    -0.342 OA
ATOM     13  C   UNL     1       6.183  -1.775  -6.540  1.00  0.00    +0.184 C 
ATOM     14  C   UNL     1       7.090  -0.568  -4.502  1.00  0.00    +0.279 C 
ATOM     15  C   UNL     1       7.450  -1.357  -5.780  1.00  0.00    +0.202 C 
BRANCH  14  16
ATOM     16  O   UNL     1       6.901  -1.458  -3.405  1.00  0.00    -0.366 OA
ATOM     17  H   UNL     1       7.048  -0.907  -2.615  1.00  0.00    +0.213 HD
ENDBRANCH  14  16
BRANCH  15  18
ATOM     18  O   UNL     1       8.242  -2.509  -5.462  1.00  0.00    -0.385 OA
ATOM     19  H   UNL     1       8.107  -2.630  -4.498  1.00  0.00    +0.211 HD
ENDBRANCH  15  18
ENDBRANCH   7   8
ENDBRANCH   1   7
BRANCH   2  20
ATOM     20  O   UNL     1       4.897  -0.852  -9.879  1.00  0.00    -0.385 OA
ATOM     21  H   UNL     1       5.519  -1.564 -10.124  1.00  0.00    +0.211 HD
ENDBRANCH   2  20
BRANCH   3  22
ATOM     22  O   UNL     1       5.522   0.509 -12.219  1.00  0.00    -0.387 OA
ATOM     23  H   UNL     1       6.337   0.878 -12.620  1.00  0.00    +0.211 HD
ENDBRANCH   3  22
BRANCH   5  24
ATOM     24  C   UNL     1       8.042   2.713  -9.080  1.00  0.00    +0.220 C 
BRANCH  24  25
ATOM     25  O   UNL     1       8.797   3.910  -9.249  1.00  0.00    -0.245 OA
BRANCH  25  26
ATOM     26  S   UNL     1      10.009   3.894 -10.329  1.00  0.00    +0.397 S 
ATOM     27  O   UNL     1       9.476   3.940 -11.672  1.00  0.00    -0.169 OA
ATOM     28  O   UNL     1      10.972   2.897  -9.916  1.00  0.00    -0.169 OA
BRANCH  26  29
ATOM     29  O   UNL     1      10.731   5.304 -10.042  1.00  0.00    -0.264 OA
ATOM     30  H   UNL     1      10.686   5.455  -9.076  1.00  0.00    +0.236 HD
ENDBRANCH  26  29
ENDBRANCH  25  26
ENDBRANCH  24  25
ENDBRANCH   5  24
BRANCH   4  31
ATOM     31  O   UNL     1       7.490   2.114 -11.701  1.00  0.00    -0.387 OA
ATOM     32  H   UNL     1       7.181   1.657 -12.515  1.00  0.00    +0.211 HD
ENDBRANCH   4  31
TORSDOF 11
ENDMDL
MODEL 5
REMARK VINA RESULT:    -7.693      4.538      7.611
REMARK INTER + INTRA:         -12.037
REMARK INTER:                 -11.007
REMARK INTRA:                  -1.030
REMARK UNBOUND:                -0.747
REMARK SMILES O=S(=O)(O)OC[C@@H]1O[C@H](O[C@H]2[C@@H]3OC[C@H]2O[C@@H](O)[C@H]3O)[C@@H](O)[C@H](O)[C@@H]1O
REMARK SMILES IDX 9 1 21 2 23 3 25 4 7 5 8 6 10 7 11 8 14 9 15 10 13 11 16 12
REMARK SMILES IDX 12 13 17 14 19 15 18 16 20 18 22 20 24 22 6 24 5 25 2 26
REMARK SMILES IDX 1 27 3 28 4 29 26 31
REMARK H PARENT 18 17 20 19 22 21 24 23 4 30 26 32
ROOT
ATOM      1  C   UNL     1       5.764  -1.697  -6.235  1.00  0.00    +0.282 C 
ATOM      2  C   UNL     1       6.624  -1.040  -5.138  1.00  0.00    +0.202 C 
ATOM      3  C   UNL     1       6.395  -1.794  -3.840  1.00  0.00    +0.179 C 
ATOM      4  C   UNL     1       6.909  -3.229  -3.991  1.00  0.00    +0.177 C 
ATOM      5  C   UNL     1       6.660  -3.813  -5.402  1.00  0.00    +0.180 C 
ATOM      6  O   UNL     1       5.621  -3.111  -6.110  1.00  0.00    -0.341 OA
ENDROOT
BRANCH   1   7
ATOM      7  O   UNL     1       6.290  -1.296  -7.503  1.00  0.00    -0.341 OA
BRANCH   7   8
ATOM      8  C   UNL     1       5.278  -1.088  -8.483  1.00  0.00    +0.184 C 
ATOM      9  C   UNL     1       4.520  -0.293 -10.554  1.00  0.00    +0.195 C 
ATOM     10  C   UNL     1       5.798  -0.798  -9.883  1.00  0.00    +0.179 C 
ATOM     11  O   UNL     1       3.769   0.386  -9.515  1.00  0.00    -0.370 OA
ATOM     12  O   UNL     1       6.845   0.189  -9.835  1.00  0.00    -0.342 OA
ATOM     13  C   UNL     1       4.520   0.219  -8.284  1.00  0.00    +0.184 C 
ATOM     14  C   UNL     1       6.492   1.456  -9.291  1.00  0.00    +0.279 C 
ATOM     15  C   UNL     1       5.506   1.381  -8.104  1.00  0.00    +0.202 C 
BRANCH  14  16
ATOM     16  O   UNL     1       5.953   2.267 -10.333  1.00  0.00    -0.366 OA
ATOM     17  H   UNL     1       5.483   1.640 -10.912  1.00  0.00    +0.213 HD
ENDBRANCH  14  16
BRANCH  15  18
ATOM     18  O   UNL     1       4.796   2.617  -7.951  1.00  0.00    -0.385 OA
ATOM     19  H   UNL     1       5.459   3.301  -8.187  1.00  0.00    +0.211 HD
ENDBRANCH  15  18
ENDBRANCH   7   8
ENDBRANCH   1   7
BRANCH   2  20
ATOM     20  O   UNL     1       6.270   0.341  -4.951  1.00  0.00    -0.385 OA
ATOM     21  H   UNL     1       5.439   0.340  -4.437  1.00  0.00    +0.211 HD
ENDBRANCH   2  20
BRANCH   3  22
ATOM     22  O   UNL     1       7.091  -1.153  -2.758  1.00  0.00    -0.387 OA
ATOM     23  H   UNL     1       6.497  -1.252  -1.984  1.00  0.00    +0.211 HD
ENDBRANCH   3  22
BRANCH   5  24
ATOM     24  C   UNL     1       7.922  -3.992  -6.266  1.00  0.00    +0.220 C 
BRANCH  24  25
ATOM     25  O   UNL     1       7.987  -5.350  -6.695  1.00  0.00    -0.245 OA
BRANCH  25  26
ATOM     26  S   UNL     1       8.589  -6.444  -5.657  1.00  0.00    +0.397 S 
ATOM     27  O   UNL     1       9.381  -5.781  -4.646  1.00  0.00    -0.169 OA
ATOM     28  O   UNL     1       9.093  -7.563  -6.420  1.00  0.00    -0.169 OA
BRANCH  26  29
ATOM     29  O   UNL     1       7.256  -6.999  -4.947  1.00  0.00    -0.264 OA
ATOM     30  H   UNL     1       7.454  -7.082  -3.992  1.00  0.00    +0.236 HD
ENDBRANCH  26  29
ENDBRANCH  25  26
ENDBRANCH  24  25
ENDBRANCH   5  24
BRANCH   4  31
ATOM     31  O   UNL     1       8.298  -3.268  -3.646  1.00  0.00    -0.387 OA
ATOM     32  H   UNL     1       8.682  -2.460  -4.054  1.00  0.00    +0.211 HD
ENDBRANCH   4  31
TORSDOF 11
ENDMDL
MODEL 6
REMARK VINA RESULT:    -7.567      2.703      6.750
REMARK INTER + INTRA:         -11.853
REMARK INTER:                 -10.729
REMARK INTRA:                  -1.124
REMARK UNBOUND:                -0.747
REMARK SMILES O=S(=O)(O)OC[C@@H]1O[C@H](O[C@H]2[C@@H]3OC[C@H]2O[C@@H](O)[C@H]3O)[C@@H](O)[C@H](O)[C@@H]1O
REMARK SMILES IDX 9 1 21 2 23 3 25 4 7 5 8 6 10 7 11 8 14 9 15 10 13 11 16 12
REMARK SMILES IDX 12 13 17 14 19 15 18 16 20 18 22 20 24 22 6 24 5 25 2 26
REMARK SMILES IDX 1 27 3 28 4 29 26 31
REMARK H PARENT 18 17 20 19 22 21 24 23 4 30 26 32
ROOT
ATOM      1  C   UNL     1       8.768  -3.464  -7.381  1.00  0.00    +0.282 C 
ATOM      2  C   UNL     1       8.516  -4.427  -8.557  1.00  0.00    +0.202 C 
ATOM      3  C   UNL     1       9.640  -5.449  -8.582  1.00  0.00    +0.179 C 
ATOM      4  C   UNL     1       9.581  -6.296  -7.308  1.00  0.00    +0.177 C 
ATOM      5  C   UNL     1       9.162  -5.482  -6.061  1.00  0.00    +0.180 C 
ATOM      6  O   UNL     1       9.367  -4.067  -6.235  1.00  0.00    -0.341 OA
ENDROOT
BRANCH   1   7
ATOM      7  O   UNL     1       7.535  -2.801  -7.086  1.00  0.00    -0.341 OA
BRANCH   7   8
ATOM      8  C   UNL     1       7.587  -2.039  -5.884  1.00  0.00    +0.184 C 
ATOM      9  C   UNL     1       6.655  -1.238  -3.888  1.00  0.00    +0.195 C 
ATOM     10  C   UNL     1       6.557  -2.434  -4.837  1.00  0.00    +0.179 C 
ATOM     11  O   UNL     1       6.966  -0.094  -4.724  1.00  0.00    -0.370 OA
ATOM     12  O   UNL     1       5.258  -2.578  -5.439  1.00  0.00    -0.342 OA
ATOM     13  C   UNL     1       7.126  -0.599  -6.075  1.00  0.00    +0.184 C 
ATOM     14  C   UNL     1       4.727  -1.421  -6.076  1.00  0.00    +0.279 C 
ATOM     15  C   UNL     1       5.781  -0.567  -6.814  1.00  0.00    +0.202 C 
BRANCH  14  16
ATOM     16  O   UNL     1       4.045  -0.635  -5.102  1.00  0.00    -0.366 OA
ATOM     17  H   UNL     1       3.571   0.039  -5.621  1.00  0.00    +0.213 HD
ENDBRANCH  14  16
BRANCH  15  18
ATOM     18  O   UNL     1       5.328   0.785  -6.965  1.00  0.00    -0.385 OA
ATOM     19  H   UNL     1       4.390   0.753  -6.677  1.00  0.00    +0.211 HD
ENDBRANCH  15  18
ENDBRANCH   7   8
ENDBRANCH   1   7
BRANCH   2  20
ATOM     20  O   UNL     1       8.487  -3.726  -9.812  1.00  0.00    -0.385 OA
ATOM     21  H   UNL     1       9.270  -4.032 -10.311  1.00  0.00    +0.211 HD
ENDBRANCH   2  20
BRANCH   3  22
ATOM     22  O   UNL     1       9.513  -6.307  -9.728  1.00  0.00    -0.387 OA
ATOM     23  H   UNL     1       9.781  -5.750 -10.489  1.00  0.00    +0.211 HD
ENDBRANCH   3  22
BRANCH   5  24
ATOM     24  C   UNL     1       7.754  -5.795  -5.520  1.00  0.00    +0.220 C 
BRANCH  24  25
ATOM     25  O   UNL     1       7.858  -6.858  -4.576  1.00  0.00    -0.245 OA
BRANCH  25  26
ATOM     26  S   UNL     1       7.764  -6.482  -2.999  1.00  0.00    +0.397 S 
ATOM     27  O   UNL     1       6.656  -5.581  -2.772  1.00  0.00    -0.169 OA
ATOM     28  O   UNL     1       9.097  -6.200  -2.520  1.00  0.00    -0.169 OA
BRANCH  26  29
ATOM     29  O   UNL     1       7.383  -7.900  -2.341  1.00  0.00    -0.264 OA
ATOM     30  H   UNL     1       7.981  -8.030  -1.577  1.00  0.00    +0.236 HD
ENDBRANCH  26  29
ENDBRANCH  25  26
ENDBRANCH  24  25
ENDBRANCH   5  24
BRANCH   4  31
ATOM     31  O   UNL     1       8.706  -7.409  -7.525  1.00  0.00    -0.387 OA
ATOM     32  H   UNL     1       9.292  -8.129  -7.852  1.00  0.00    +0.211 HD
ENDBRANCH   4  31
TORSDOF 11
ENDMDL
MODEL 7
REMARK VINA RESULT:    -7.544      5.732      8.364
REMARK INTER + INTRA:         -11.819
REMARK INTER:                 -10.470
REMARK INTRA:                  -1.349
REMARK UNBOUND:                -0.747
REMARK SMILES O=S(=O)(O)OC[C@@H]1O[C@H](O[C@H]2[C@@H]3OC[C@H]2O[C@@H](O)[C@H]3O)[C@@H](O)[C@H](O)[C@@H]1O
REMARK SMILES IDX 9 1 21 2 23 3 25 4 7 5 8 6 10 7 11 8 14 9 15 10 13 11 16 12
REMARK SMILES IDX 12 13 17 14 19 15 18 16 20 18 22 20 24 22 6 24 5 25 2 26
REMARK SMILES IDX 1 27 3 28 4 29 26 31
REMARK H PARENT 18 17 20 19 22 21 24 23 4 30 26 32
ROOT
ATOM      1  C   UNL     1       9.290  -1.477  -8.010  1.00  0.00    +0.282 C 
ATOM      2  C   UNL     1      10.450  -0.463  -8.043  1.00  0.00    +0.202 C 
ATOM      3  C   UNL     1      10.818  -0.211  -9.495  1.00  0.00    +0.179 C 
ATOM      4  C   UNL     1       9.638   0.457 -10.207  1.00  0.00    +0.177 C 
ATOM      5  C   UNL     1       8.266  -0.074  -9.728  1.00  0.00    +0.180 C 
ATOM      6  O   UNL     1       8.368  -1.362  -9.092  1.00  0.00    -0.341 OA
ENDROOT
BRANCH   1   7
ATOM      7  O   UNL     1       8.664  -1.385  -6.727  1.00  0.00    -0.341 OA
BRANCH   7   8
ATOM      8  C   UNL     1       7.394  -2.027  -6.681  1.00  0.00    +0.184 C 
ATOM      9  C   UNL     1       5.237  -2.308  -5.809  1.00  0.00    +0.195 C 
ATOM     10  C   UNL     1       6.301  -1.225  -5.991  1.00  0.00    +0.179 C 
ATOM     11  O   UNL     1       5.963  -3.548  -5.606  1.00  0.00    -0.370 OA
ATOM     12  O   UNL     1       6.783  -0.686  -4.747  1.00  0.00    -0.342 OA
ATOM     13  C   UNL     1       7.372  -3.229  -5.744  1.00  0.00    +0.184 C 
ATOM     14  C   UNL     1       7.227  -1.631  -3.780  1.00  0.00    +0.279 C 
ATOM     15  C   UNL     1       7.964  -2.849  -4.380  1.00  0.00    +0.202 C 
BRANCH  14  16
ATOM     16  O   UNL     1       6.106  -2.059  -3.010  1.00  0.00    -0.366 OA
ATOM     17  H   UNL     1       6.231  -1.637  -2.142  1.00  0.00    +0.213 HD
ENDBRANCH  14  16
BRANCH  15  18
ATOM     18  O   UNL     1       7.913  -3.968  -3.485  1.00  0.00    -0.385 OA
ATOM     19  H   UNL     1       7.222  -3.719  -2.835  1.00  0.00    +0.211 HD
ENDBRANCH  15  18
ENDBRANCH   7   8
ENDBRANCH   1   7
BRANCH   2  20
ATOM     20  O   UNL     1      11.603  -0.961  -7.343  1.00  0.00    -0.385 OA
ATOM     21  H   UNL     1      11.333  -1.814  -6.950  1.00  0.00    +0.211 HD
ENDBRANCH   2  20
BRANCH   3  22
ATOM     22  O   UNL     1      11.968   0.646  -9.579  1.00  0.00    -0.387 OA
ATOM     23  H   UNL     1      12.341   0.655  -8.673  1.00  0.00    +0.211 HD
ENDBRANCH   3  22
BRANCH   5  24
ATOM     24  C   UNL     1       7.440   0.916  -8.887  1.00  0.00    +0.220 C 
BRANCH  24  25
ATOM     25  O   UNL     1       6.755   1.800  -9.772  1.00  0.00    -0.245 OA
BRANCH  25  26
ATOM     26  S   UNL     1       6.547   3.338  -9.295  1.00  0.00    +0.397 S 
ATOM     27  O   UNL     1       5.524   3.405  -8.277  1.00  0.00    -0.169 OA
ATOM     28  O   UNL     1       6.519   4.178 -10.471  1.00  0.00    -0.169 OA
BRANCH  26  29
ATOM     29  O   UNL     1       7.958   3.663  -8.592  1.00  0.00    -0.264 OA
ATOM     30  H   UNL     1       7.980   4.628  -8.429  1.00  0.00    +0.236 HD
ENDBRANCH  26  29
ENDBRANCH  25  26
ENDBRANCH  24  25
ENDBRANCH   5  24
BRANCH   4  31
ATOM     31  O   UNL     1       9.735   1.876 -10.046  1.00  0.00    -0.387 OA
ATOM     32  H   UNL     1       8.807   2.180  -9.931  1.00  0.00    +0.211 HD
ENDBRANCH   4  31
TORSDOF 11
ENDMDL
MODEL 8
REMARK VINA RESULT:    -7.361     27.827     29.446
REMARK INTER + INTRA:         -11.550
REMARK INTER:                  -9.774
REMARK INTRA:                  -1.776
REMARK UNBOUND:                -0.747
REMARK SMILES O=S(=O)(O)OC[C@@H]1O[C@H](O[C@H]2[C@@H]3OC[C@H]2O[C@@H](O)[C@H]3O)[C@@H](O)[C@H](O)[C@@H]1O
REMARK SMILES IDX 9 1 21 2 23 3 25 4 7 5 8 6 10 7 11 8 14 9 15 10 13 11 16 12
REMARK SMILES IDX 12 13 17 14 19 15 18 16 20 18 22 20 24 22 6 24 5 25 2 26
REMARK SMILES IDX 1 27 3 28 4 29 26 31
REMARK H PARENT 18 17 20 19 22 21 24 23 4 30 26 32
ROOT
ATOM      1  C   UNL     1     -17.309  -6.101   8.865  1.00  0.00    +0.282 C 
ATOM      2  C   UNL     1     -16.364  -6.765   7.844  1.00  0.00    +0.202 C 
ATOM      3  C   UNL     1     -17.193  -7.210   6.651  1.00  0.00    +0.179 C 
ATOM      4  C   UNL     1     -17.783  -5.979   5.958  1.00  0.00    +0.177 C 
ATOM      5  C   UNL     1     -18.201  -4.869   6.952  1.00  0.00    +0.180 C 
ATOM      6  O   UNL     1     -18.392  -5.373   8.288  1.00  0.00    -0.341 OA
ENDROOT
BRANCH   1   7
ATOM      7  O   UNL     1     -16.510  -5.311   9.751  1.00  0.00    -0.341 OA
BRANCH   7   8
ATOM      8  C   UNL     1     -16.575  -5.756  11.102  1.00  0.00    +0.184 C 
ATOM      9  C   UNL     1     -16.405  -5.415  13.415  1.00  0.00    +0.195 C 
ATOM     10  C   UNL     1     -16.722  -4.646  12.131  1.00  0.00    +0.179 C 
ATOM     11  O   UNL     1     -15.432  -6.424  13.042  1.00  0.00    -0.370 OA
ATOM     12  O   UNL     1     -15.792  -3.583  11.859  1.00  0.00    -0.342 OA
ATOM     13  C   UNL     1     -15.249  -6.313  11.607  1.00  0.00    +0.184 C 
ATOM     14  C   UNL     1     -14.412  -3.933  11.875  1.00  0.00    +0.279 C 
ATOM     15  C   UNL     1     -14.110  -5.332  11.293  1.00  0.00    +0.202 C 
BRANCH  14  16
ATOM     16  O   UNL     1     -13.931  -3.838  13.213  1.00  0.00    -0.366 OA
ATOM     17  H   UNL     1     -13.110  -3.319  13.141  1.00  0.00    +0.213 HD
ENDBRANCH  14  16
BRANCH  15  18
ATOM     18  O   UNL     1     -12.866  -5.836  11.797  1.00  0.00    -0.385 OA
ATOM     19  H   UNL     1     -12.256  -5.768  11.032  1.00  0.00    +0.211 HD
ENDBRANCH  15  18
ENDBRANCH   7   8
ENDBRANCH   1   7
BRANCH   2  20
ATOM     20  O   UNL     1     -15.699  -7.907   8.410  1.00  0.00    -0.385 OA
ATOM     21  H   UNL     1     -14.821  -7.948   7.982  1.00  0.00    +0.211 HD
ENDBRANCH   2  20
BRANCH   3  22
ATOM     22  O   UNL     1     -16.376  -7.934   5.716  1.00  0.00    -0.387 OA
ATOM     23  H   UNL     1     -15.659  -8.323   6.259  1.00  0.00    +0.211 HD
ENDBRANCH   3  22
BRANCH   5  24
ATOM     24  C   UNL     1     -17.314  -3.611   6.936  1.00  0.00    +0.220 C 
BRANCH  24  25
ATOM     25  O   UNL     1     -18.047  -2.533   7.512  1.00  0.00    -0.245 OA
BRANCH  25  26
ATOM     26  S   UNL     1     -17.481  -1.882   8.888  1.00  0.00    +0.397 S 
ATOM     27  O   UNL     1     -18.245  -2.369  10.015  1.00  0.00    -0.169 OA
ATOM     28  O   UNL     1     -17.253  -0.473   8.663  1.00  0.00    -0.169 OA
BRANCH  26  29
ATOM     29  O   UNL     1     -16.009  -2.527   8.981  1.00  0.00    -0.264 OA
ATOM     30  H   UNL     1     -16.044  -3.387   8.516  1.00  0.00    +0.236 HD
ENDBRANCH  26  29
ENDBRANCH  25  26
ENDBRANCH  24  25
ENDBRANCH   5  24
BRANCH   4  31
ATOM     31  O   UNL     1     -16.846  -5.490   4.991  1.00  0.00    -0.387 OA
ATOM     32  H   UNL     1     -16.162  -6.194   4.927  1.00  0.00    +0.211 HD
ENDBRANCH   4  31
TORSDOF 11
ENDMDL
MODEL 9
REMARK VINA RESULT:    -7.329      2.734      6.673
REMARK INTER + INTRA:         -11.504
REMARK INTER:                 -10.618
REMARK INTRA:                  -0.885
REMARK UNBOUND:                -0.747
REMARK SMILES O=S(=O)(O)OC[C@@H]1O[C@H](O[C@H]2[C@@H]3OC[C@H]2O[C@@H](O)[C@H]3O)[C@@H](O)[C@H](O)[C@@H]1O
REMARK SMILES IDX 9 1 21 2 23 3 25 4 7 5 8 6 10 7 11 8 14 9 15 10 13 11 16 12
REMARK SMILES IDX 12 13 17 14 19 15 18 16 20 18 22 20 24 22 6 24 5 25 2 26
REMARK SMILES IDX 1 27 3 28 4 29 26 31
REMARK H PARENT 18 17 20 19 22 21 24 23 4 30 26 32
ROOT
ATOM      1  C   UNL     1       7.796  -4.921  -4.098  1.00  0.00    +0.282 C 
ATOM      2  C   UNL     1       9.272  -5.226  -3.780  1.00  0.00    +0.202 C 
ATOM      3  C   UNL     1       9.318  -6.412  -2.831  1.00  0.00    +0.179 C 
ATOM      4  C   UNL     1       8.763  -7.650  -3.542  1.00  0.00    +0.177 C 
ATOM      5  C   UNL     1       7.581  -7.324  -4.485  1.00  0.00    +0.180 C 
ATOM      6  O   UNL     1       6.952  -6.069  -4.163  1.00  0.00    -0.341 OA
ENDROOT
BRANCH   1   7
ATOM      7  O   UNL     1       7.759  -4.129  -5.289  1.00  0.00    -0.341 OA
BRANCH   7   8
ATOM      8  C   UNL     1       7.844  -2.732  -5.029  1.00  0.00    +0.184 C 
ATOM      9  C   UNL     1       7.004  -0.722  -4.164  1.00  0.00    +0.195 C 
ATOM     10  C   UNL     1       6.918  -2.231  -3.931  1.00  0.00    +0.179 C 
ATOM     11  O   UNL     1       7.181  -0.551  -5.594  1.00  0.00    -0.370 OA
ATOM     12  O   UNL     1       5.592  -2.761  -4.113  1.00  0.00    -0.342 OA
ATOM     13  C   UNL     1       7.278  -1.883  -6.161  1.00  0.00    +0.184 C 
ATOM     14  C   UNL     1       4.944  -2.431  -5.336  1.00  0.00    +0.279 C 
ATOM     15  C   UNL     1       5.886  -2.392  -6.559  1.00  0.00    +0.202 C 
BRANCH  14  16
ATOM     16  O   UNL     1       4.281  -1.179  -5.179  1.00  0.00    -0.366 OA
ATOM     17  H   UNL     1       3.403  -1.315  -5.578  1.00  0.00    +0.213 HD
ENDBRANCH  14  16
BRANCH  15  18
ATOM     18  O   UNL     1       5.336  -1.574  -7.601  1.00  0.00    -0.385 OA
ATOM     19  H   UNL     1       4.366  -1.658  -7.481  1.00  0.00    +0.211 HD
ENDBRANCH  15  18
ENDBRANCH   7   8
ENDBRANCH   1   7
BRANCH   2  20
ATOM     20  O   UNL     1       9.919  -4.101  -3.161  1.00  0.00    -0.385 OA
ATOM     21  H   UNL     1       9.323  -3.806  -2.445  1.00  0.00    +0.211 HD
ENDBRANCH   2  20
BRANCH   3  22
ATOM     22  O   UNL     1      10.669  -6.670  -2.416  1.00  0.00    -0.387 OA
ATOM     23  H   UNL     1      10.810  -6.082  -1.644  1.00  0.00    +0.211 HD
ENDBRANCH   3  22
BRANCH   5  24
ATOM     24  C   UNL     1       7.894  -7.439  -5.988  1.00  0.00    +0.220 C 
BRANCH  24  25
ATOM     25  O   UNL     1       8.077  -8.816  -6.309  1.00  0.00    -0.245 OA
BRANCH  25  26
ATOM     26  S   UNL     1       9.328  -9.211  -7.265  1.00  0.00    +0.397 S 
ATOM     27  O   UNL     1       8.878  -9.362  -8.630  1.00  0.00    -0.169 OA
ATOM     28  O   UNL     1      10.109 -10.226  -6.594  1.00  0.00    -0.169 OA
BRANCH  26  29
ATOM     29  O   UNL     1      10.235  -7.883  -7.193  1.00  0.00    -0.264 OA
ATOM     30  H   UNL     1      10.913  -8.037  -6.504  1.00  0.00    +0.236 HD
ENDBRANCH  26  29
ENDBRANCH  25  26
ENDBRANCH  24  25
ENDBRANCH   5  24
BRANCH   4  31
ATOM     31  O   UNL     1       9.827  -8.304  -4.243  1.00  0.00    -0.387 OA
ATOM     32  H   UNL     1      10.606  -7.714  -4.125  1.00  0.00    +0.211 HD
ENDBRANCH   4  31
TORSDOF 11
ENDMDL
