MODEL 1
REMARK VINA RESULT:    -6.153      0.000      0.000
REMARK INTER + INTRA:         -10.575
REMARK INTER:                  -9.031
REMARK INTRA:                  -1.545
REMARK UNBOUND:                -1.545
REMARK SMILES O=S(=O)(O)OC[C@@H]1O[C@H](O[C@H]2[C@@H]3OC[C@H]2O[C@@H](O)[C@H]3O)[C@@H](O)[C@H](O)[C@@H]1O
REMARK SMILES IDX 9 1 21 2 23 3 25 4 7 5 8 6 10 7 11 8 14 9 15 10 13 11 16 12
REMARK SMILES IDX 12 13 17 14 19 15 18 16 20 18 22 20 24 22 6 24 5 25 2 26
REMARK SMILES IDX 1 27 3 28 4 29 26 31
REMARK H PARENT 18 17 20 19 22 21 24 23 4 30 26 32
ROOT
ATOM      1  C   UNL     1       6.598 -14.562  -3.166  1.00  0.00    +0.282 C 
ATOM      2  C   UNL     1       5.610 -14.262  -2.022  1.00  0.00    +0.202 C 
ATOM      3  C   UNL     1       6.351 -14.410  -0.705  1.00  0.00    +0.179 C 
ATOM      4  C   UNL     1       7.447 -13.344  -0.619  1.00  0.00    +0.177 C 
ATOM      5  C   UNL     1       8.125 -13.066  -1.982  1.00  0.00    +0.180 C 
ATOM      6  O   UNL     1       7.939 -14.146  -2.917  1.00  0.00    -0.341 OA
ENDROOT
BRANCH   1   7
ATOM      7  O   UNL     1       6.054 -14.013  -4.370  1.00  0.00    -0.341 OA
BRANCH   7   8
ATOM      8  C   UNL     1       5.449 -14.995  -5.204  1.00  0.00    +0.184 C 
ATOM      9  C   UNL     1       5.327 -16.263  -7.172  1.00  0.00    +0.195 C 
ATOM     10  C   UNL     1       6.355 -15.552  -6.291  1.00  0.00    +0.179 C 
ATOM     11  O   UNL     1       4.111 -15.478  -7.073  1.00  0.00    -0.370 OA
ATOM     12  O   UNL     1       7.043 -14.484  -6.967  1.00  0.00    -0.342 OA
ATOM     13  C   UNL     1       4.380 -14.415  -6.123  1.00  0.00    +0.184 C 
ATOM     14  C   UNL     1       6.224 -13.517  -7.616  1.00  0.00    +0.279 C 
ATOM     15  C   UNL     1       4.923 -13.179  -6.853  1.00  0.00    +0.202 C 
BRANCH  14  16
ATOM     16  O   UNL     1       5.922 -13.980  -8.930  1.00  0.00    -0.366 OA
ATOM     17  H   UNL     1       5.342 -13.293  -9.304  1.00  0.00    +0.213 HD
ENDBRANCH  14  16
BRANCH  15  18
ATOM     18  O   UNL     1       3.932 -12.651  -7.744  1.00  0.00    -0.385 OA
ATOM     19  H   UNL     1       4.447 -12.098  -8.370  1.00  0.00    +0.211 HD
ENDBRANCH  15  18
ENDBRANCH   7   8
ENDBRANCH   1   7
BRANCH   2  20
ATOM     20  O   UNL     1       4.495 -15.170  -2.041  1.00  0.00    -0.385 OA
ATOM     21  H   UNL     1       3.692 -14.613  -2.027  1.00  0.00    +0.211 HD
ENDBRANCH   2  20
BRANCH   3  22
ATOM     22  O   UNL     1       5.446 -14.247   0.401  1.00  0.00    -0.387 OA
ATOM     23  H   UNL     1       4.591 -14.602   0.078  1.00  0.00    +0.211 HD
ENDBRANCH   3  22
BRANCH   5  24
ATOM     24  C   UNL     1       7.792 -11.700  -2.610  1.00  0.00    +0.220 C 
BRANCH  24  25
ATOM     25  O   UNL     1       8.966 -11.194  -3.242  1.00  0.00    -0.245 OA
BRANCH  25  26
ATOM     26  S   UNL     1       8.931 -10.991  -4.852  1.00  0.00    +0.397 S 
ATOM     27  O   UNL     1      10.261 -10.711  -5.343  1.00  0.00    -0.169 OA
ATOM     28  O   UNL     1       7.797 -10.157  -5.180  1.00  0.00    -0.169 OA
BRANCH  26  29
ATOM     29  O   UNL     1       8.521 -12.461  -5.365  1.00  0.00    -0.264 OA
ATOM     30  H   UNL     1       8.002 -12.342  -6.186  1.00  0.00    +0.236 HD
ENDBRANCH  26  29
ENDBRANCH  25  26
ENDBRANCH  24  25
ENDBRANCH   5  24
BRANCH   4  31
ATOM     31  O   UNL     1       6.897 -12.149  -0.055  1.00  0.00    -0.387 OA
ATOM     32  H   UNL     1       5.993 -12.084  -0.437  1.00  0.00    +0.211 HD
ENDBRANCH   4  31
TORSDOF 11
ENDMDL
MODEL 2
REMARK VINA RESULT:    -6.150      2.737      4.683
REMARK INTER + INTRA:         -10.571
REMARK INTER:                  -8.800
REMARK INTRA:                  -1.771
REMARK UNBOUND:                -1.545
REMARK SMILES O=S(=O)(O)OC[C@@H]1O[C@H](O[C@H]2[C@@H]3OC[C@H]2O[C@@H](O)[C@H]3O)[C@@H](O)[C@H](O)[C@@H]1O
REMARK SMILES IDX 9 1 21 2 23 3 25 4 7 5 8 6 10 7 11 8 14 9 15 10 13 11 16 12
REMARK SMILES IDX 12 13 17 14 19 15 18 16 20 18 22 20 24 22 6 24 5 25 2 26
REMARK SMILES IDX 1 27 3 28 4 29 26 31
REMARK H PARENT 18 17 20 19 22 21 24 23 4 30 26 32
ROOT
ATOM      1  C   UNL     1       6.239 -14.239  -3.124  1.00  0.00    +0.282 C 
ATOM      2  C   UNL     1       6.437 -13.916  -1.631  1.00  0.00    +0.202 C 
ATOM      3  C   UNL     1       5.444 -14.741  -0.831  1.00  0.00    +0.179 C 
ATOM      4  C   UNL     1       5.769 -16.228  -0.999  1.00  0.00    +0.177 C 
ATOM      5  C   UNL     1       6.258 -16.581  -2.425  1.00  0.00    +0.180 C 
ATOM      6  O   UNL     1       5.872 -15.590  -3.397  1.00  0.00    -0.341 OA
ENDROOT
BRANCH   1   7
ATOM      7  O   UNL     1       7.417 -13.826  -3.822  1.00  0.00    -0.341 OA
BRANCH   7   8
ATOM      8  C   UNL     1       7.250 -12.590  -4.510  1.00  0.00    +0.184 C 
ATOM      9  C   UNL     1       7.748 -11.089  -6.239  1.00  0.00    +0.195 C 
ATOM     10  C   UNL     1       7.748 -12.590  -5.947  1.00  0.00    +0.179 C 
ATOM     11  O   UNL     1       8.070 -10.440  -4.982  1.00  0.00    -0.370 OA
ATOM     12  O   UNL     1       9.055 -13.186  -6.026  1.00  0.00    -0.342 OA
ATOM     13  C   UNL     1       8.170 -11.492  -3.987  1.00  0.00    +0.184 C 
ATOM     14  C   UNL     1      10.082 -12.556  -5.270  1.00  0.00    +0.279 C 
ATOM     15  C   UNL     1       9.614 -12.006  -3.904  1.00  0.00    +0.202 C 
BRANCH  14  16
ATOM     16  O   UNL     1      10.653 -11.512  -6.055  1.00  0.00    -0.366 OA
ATOM     17  H   UNL     1      11.555 -11.821  -6.253  1.00  0.00    +0.213 HD
ENDBRANCH  14  16
BRANCH  15  18
ATOM     18  O   UNL     1      10.487 -10.966  -3.446  1.00  0.00    -0.385 OA
ATOM     19  H   UNL     1      10.638 -11.183  -2.501  1.00  0.00    +0.211 HD
ENDBRANCH  15  18
ENDBRANCH   7   8
ENDBRANCH   1   7
BRANCH   2  20
ATOM     20  O   UNL     1       6.218 -12.521  -1.361  1.00  0.00    -0.385 OA
ATOM     21  H   UNL     1       6.237 -12.427  -0.389  1.00  0.00    +0.211 HD
ENDBRANCH   2  20
BRANCH   3  22
ATOM     22  O   UNL     1       5.512 -14.397   0.563  1.00  0.00    -0.387 OA
ATOM     23  H   UNL     1       4.651 -13.972   0.758  1.00  0.00    +0.211 HD
ENDBRANCH   3  22
BRANCH   5  24
ATOM     24  C   UNL     1       7.751 -16.939  -2.533  1.00  0.00    +0.220 C 
BRANCH  24  25
ATOM     25  O   UNL     1       7.957 -17.658  -3.746  1.00  0.00    -0.245 OA
BRANCH  25  26
ATOM     26  S   UNL     1       8.912 -16.985  -4.873  1.00  0.00    +0.397 S 
ATOM     27  O   UNL     1       9.365 -17.994  -5.803  1.00  0.00    -0.169 OA
ATOM     28  O   UNL     1       9.826 -16.081  -4.212  1.00  0.00    -0.169 OA
BRANCH  26  29
ATOM     29  O   UNL     1       7.881 -16.027  -5.655  1.00  0.00    -0.264 OA
ATOM     30  H   UNL     1       8.188 -15.107  -5.520  1.00  0.00    +0.236 HD
ENDBRANCH  26  29
ENDBRANCH  25  26
ENDBRANCH  24  25
ENDBRANCH   5  24
BRANCH   4  31
ATOM     31  O   UNL     1       6.727 -16.614  -0.007  1.00  0.00    -0.387 OA
ATOM     32  H   UNL     1       7.578 -16.686  -0.495  1.00  0.00    +0.211 HD
ENDBRANCH   4  31
TORSDOF 11
ENDMDL
MODEL 3
REMARK VINA RESULT:    -5.990     23.334     26.358
REMARK INTER + INTRA:         -10.336
REMARK INTER:                  -9.425
REMARK INTRA:                  -0.911
REMARK UNBOUND:                -1.545
REMARK SMILES O=S(=O)(O)OC[C@@H]1O[C@H](O[C@H]2[C@@H]3OC[C@H]2O[C@@H](O)[C@H]3O)[C@@H](O)[C@H](O)[C@@H]1O
REMARK SMILES IDX 9 1 21 2 23 3 25 4 7 5 8 6 10 7 11 8 14 9 15 10 13 11 16 12
REMARK SMILES IDX 12 13 17 14 19 15 18 16 20 18 22 20 24 22 6 24 5 25 2 26
REMARK SMILES IDX 1 27 3 28 4 29 26 31
REMARK H PARENT 18 17 20 19 22 21 24 23 4 30 26 32
ROOT
ATOM      1  C   UNL     1      18.588   9.947  -4.693  1.00  0.00    +0.282 C 
ATOM      2  C   UNL     1      17.789  10.452  -3.477  1.00  0.00    +0.202 C 
ATOM      3  C   UNL     1      18.302  11.835  -3.113  1.00  0.00    +0.179 C 
ATOM      4  C   UNL     1      18.002  12.804  -4.260  1.00  0.00    +0.177 C 
ATOM      5  C   UNL     1      18.150  12.151  -5.655  1.00  0.00    +0.180 C 
ATOM      6  O   UNL     1      18.966  10.964  -5.620  1.00  0.00    -0.341 OA
ENDROOT
BRANCH   1   7
ATOM      7  O   UNL     1      17.844   8.885  -5.296  1.00  0.00    -0.341 OA
BRANCH   7   8
ATOM      8  C   UNL     1      18.522   7.634  -5.246  1.00  0.00    +0.184 C 
ATOM      9  C   UNL     1      20.182   6.137  -5.952  1.00  0.00    +0.195 C 
ATOM     10  C   UNL     1      19.916   7.640  -5.853  1.00  0.00    +0.179 C 
ATOM     11  O   UNL     1      18.892   5.523  -6.207  1.00  0.00    -0.370 OA
ATOM     12  O   UNL     1      19.904   8.302  -7.131  1.00  0.00    -0.342 OA
ATOM     13  C   UNL     1      17.911   6.591  -6.176  1.00  0.00    +0.184 C 
ATOM     14  C   UNL     1      19.060   7.735  -8.127  1.00  0.00    +0.279 C 
ATOM     15  C   UNL     1      17.725   7.180  -7.581  1.00  0.00    +0.202 C 
BRANCH  14  16
ATOM     16  O   UNL     1      19.780   6.712  -8.809  1.00  0.00    -0.366 OA
ATOM     17  H   UNL     1      19.486   6.781  -9.734  1.00  0.00    +0.213 HD
ENDBRANCH  14  16
BRANCH  15  18
ATOM     18  O   UNL     1      17.183   6.192  -8.467  1.00  0.00    -0.385 OA
ATOM     19  H   UNL     1      17.669   5.372  -8.232  1.00  0.00    +0.211 HD
ENDBRANCH  15  18
ENDBRANCH   7   8
ENDBRANCH   1   7
BRANCH   2  20
ATOM     20  O   UNL     1      17.946   9.577  -2.346  1.00  0.00    -0.385 OA
ATOM     21  H   UNL     1      18.508   8.838  -2.651  1.00  0.00    +0.211 HD
ENDBRANCH   2  20
BRANCH   3  22
ATOM     22  O   UNL     1      17.663  12.307  -1.914  1.00  0.00    -0.387 OA
ATOM     23  H   UNL     1      17.114  11.554  -1.610  1.00  0.00    +0.211 HD
ENDBRANCH   3  22
BRANCH   5  24
ATOM     24  C   UNL     1      16.829  11.917  -6.410  1.00  0.00    +0.220 C 
BRANCH  24  25
ATOM     25  O   UNL     1      16.482  13.117  -7.097  1.00  0.00    -0.245 OA
BRANCH  25  26
ATOM     26  S   UNL     1      15.131  13.112  -7.995  1.00  0.00    +0.397 S 
ATOM     27  O   UNL     1      14.072  13.808  -7.300  1.00  0.00    -0.169 OA
ATOM     28  O   UNL     1      14.952  11.784  -8.539  1.00  0.00    -0.169 OA
BRANCH  26  29
ATOM     29  O   UNL     1      15.564  14.015  -9.255  1.00  0.00    -0.264 OA
ATOM     30  H   UNL     1      16.454  14.371  -9.058  1.00  0.00    +0.236 HD
ENDBRANCH  26  29
ENDBRANCH  25  26
ENDBRANCH  24  25
ENDBRANCH   5  24
BRANCH   4  31
ATOM     31  O   UNL     1      16.693  13.356  -4.077  1.00  0.00    -0.387 OA
ATOM     32  H   UNL     1      16.291  13.351  -4.974  1.00  0.00    +0.211 HD
ENDBRANCH   4  31
TORSDOF 11
ENDMDL
MODEL 4
REMARK VINA RESULT:    -5.642     23.815     26.587
REMARK INTER + INTRA:          -9.825
REMARK INTER:                  -9.058
REMARK INTRA:                  -0.767
REMARK UNBOUND:                -1.545
REMARK SMILES O=S(=O)(O)OC[C@@H]1O[C@H](O[C@H]2[C@@H]3OC[C@H]2O[C@@H](O)[C@H]3O)[C@@H](O)[C@H](O)[C@@H]1O
REMARK SMILES IDX 9 1 21 2 23 3 25 4 7 5 8 6 10 7 11 8 14 9 15 10 13 11 16 12
REMARK SMILES IDX 12 13 17 14 19 15 18 16 20 18 22 20 24 22 6 24 5 25 2 26
REMARK SMILES IDX 1 27 3 28 4 29 26 31
REMARK H PARENT 18 17 20 19 22 21 24 23 4 30 26 32
ROOT
ATOM      1  C   UNL     1      14.255   7.758 -18.667  1.00  0.00    +0.282 C 
ATOM      2  C   UNL     1      15.393   8.667 -18.165  1.00  0.00    +0.202 C 
ATOM      3  C   UNL     1      15.461   9.885 -19.071  1.00  0.00    +0.179 C 
ATOM      4  C   UNL     1      14.168  10.693 -18.930  1.00  0.00    +0.177 C 
ATOM      5  C   UNL     1      12.917   9.801 -18.750  1.00  0.00    +0.180 C 
ATOM      6  O   UNL     1      13.134   8.453 -19.209  1.00  0.00    -0.341 OA
ENDROOT
BRANCH   1   7
ATOM      7  O   UNL     1      13.904   6.869 -17.603  1.00  0.00    -0.341 OA
BRANCH   7   8
ATOM      8  C   UNL     1      14.686   5.679 -17.592  1.00  0.00    +0.184 C 
ATOM      9  C   UNL     1      14.972   3.375 -17.911  1.00  0.00    +0.195 C 
ATOM     10  C   UNL     1      14.119   4.537 -18.421  1.00  0.00    +0.179 C 
ATOM     11  O   UNL     1      15.248   3.668 -16.517  1.00  0.00    -0.370 OA
ATOM     12  O   UNL     1      12.714   4.373 -18.155  1.00  0.00    -0.342 OA
ATOM     13  C   UNL     1      14.664   4.968 -16.244  1.00  0.00    +0.184 C 
ATOM     14  C   UNL     1      12.358   4.078 -16.809  1.00  0.00    +0.279 C 
ATOM     15  C   UNL     1      13.219   4.807 -15.753  1.00  0.00    +0.202 C 
BRANCH  14  16
ATOM     16  O   UNL     1      12.427   2.667 -16.617  1.00  0.00    -0.366 OA
ATOM     17  H   UNL     1      11.813   2.300 -17.277  1.00  0.00    +0.213 HD
ENDBRANCH  14  16
BRANCH  15  18
ATOM     18  O   UNL     1      13.193   4.108 -14.502  1.00  0.00    -0.385 OA
ATOM     19  H   UNL     1      12.305   4.310 -14.137  1.00  0.00    +0.211 HD
ENDBRANCH  15  18
ENDBRANCH   7   8
ENDBRANCH   1   7
BRANCH   2  20
ATOM     20  O   UNL     1      16.660   7.987 -18.193  1.00  0.00    -0.385 OA
ATOM     21  H   UNL     1      17.259   8.508 -17.624  1.00  0.00    +0.211 HD
ENDBRANCH   2  20
BRANCH   3  22
ATOM     22  O   UNL     1      16.579  10.715 -18.713  1.00  0.00    -0.387 OA
ATOM     23  H   UNL     1      17.000  10.255 -17.956  1.00  0.00    +0.211 HD
ENDBRANCH   3  22
BRANCH   5  24
ATOM     24  C   UNL     1      12.289   9.834 -17.345  1.00  0.00    +0.220 C 
BRANCH  24  25
ATOM     25  O   UNL     1      10.986  10.404 -17.444  1.00  0.00    -0.245 OA
BRANCH  25  26
ATOM     26  S   UNL     1      10.864  12.023 -17.409  1.00  0.00    +0.397 S 
ATOM     27  O   UNL     1       9.549  12.409 -16.950  1.00  0.00    -0.169 OA
ATOM     28  O   UNL     1      11.439  12.548 -18.627  1.00  0.00    -0.169 OA
BRANCH  26  29
ATOM     29  O   UNL     1      11.918  12.412 -16.257  1.00  0.00    -0.264 OA
ATOM     30  H   UNL     1      11.870  13.383 -16.143  1.00  0.00    +0.236 HD
ENDBRANCH  26  29
ENDBRANCH  25  26
ENDBRANCH  24  25
ENDBRANCH   5  24
BRANCH   4  31
ATOM     31  O   UNL     1      14.310  11.620 -17.848  1.00  0.00    -0.387 OA
ATOM     32  H   UNL     1      15.208  12.005 -17.963  1.00  0.00    +0.211 HD
ENDBRANCH   4  31
TORSDOF 11
ENDMDL
MODEL 5
REMARK VINA RESULT:    -5.588     23.062     25.867
REMARK INTER + INTRA:          -9.746
REMARK INTER:                  -7.989
REMARK INTRA:                  -1.757
REMARK UNBOUND:                -1.545
REMARK SMILES O=S(=O)(O)OC[C@@H]1O[C@H](O[C@H]2[C@@H]3OC[C@H]2O[C@@H](O)[C@H]3O)[C@@H](O)[C@H](O)[C@@H]1O
REMARK SMILES IDX 9 1 21 2 23 3 25 4 7 5 8 6 10 7 11 8 14 9 15 10 13 11 16 12
REMARK SMILES IDX 12 13 17 14 19 15 18 16 20 18 22 20 24 22 6 24 5 25 2 26
REMARK SMILES IDX 1 27 3 28 4 29 26 31
REMARK H PARENT 18 17 20 19 22 21 24 23 4 30 26 32
ROOT
ATOM      1  C   UNL     1      13.681   5.750 -16.795  1.00  0.00    +0.282 C 
ATOM      2  C   UNL     1      15.092   5.208 -17.095  1.00  0.00    +0.202 C 
ATOM      3  C   UNL     1      15.188   3.799 -16.537  1.00  0.00    +0.179 C 
ATOM      4  C   UNL     1      14.208   2.891 -17.284  1.00  0.00    +0.177 C 
ATOM      5  C   UNL     1      12.883   3.604 -17.648  1.00  0.00    +0.180 C 
ATOM      6  O   UNL     1      12.647   4.769 -16.835  1.00  0.00    -0.341 OA
ENDROOT
BRANCH   1   7
ATOM      7  O   UNL     1      13.442   6.855 -17.670  1.00  0.00    -0.341 OA
BRANCH   7   8
ATOM      8  C   UNL     1      13.032   8.031 -16.980  1.00  0.00    +0.184 C 
ATOM      9  C   UNL     1      12.118  10.189 -16.907  1.00  0.00    +0.195 C 
ATOM     10  C   UNL     1      12.056   8.911 -17.746  1.00  0.00    +0.179 C 
ATOM     11  O   UNL     1      13.475  10.264 -16.400  1.00  0.00    -0.370 OA
ATOM     12  O   UNL     1      12.504   9.097 -19.101  1.00  0.00    -0.342 OA
ATOM     13  C   UNL     1      14.150   9.058 -16.843  1.00  0.00    +0.184 C 
ATOM     14  C   UNL     1      13.778   9.711 -19.265  1.00  0.00    +0.279 C 
ATOM     15  C   UNL     1      14.820   9.296 -18.203  1.00  0.00    +0.202 C 
BRANCH  14  16
ATOM     16  O   UNL     1      13.606  11.126 -19.265  1.00  0.00    -0.366 OA
ATOM     17  H   UNL     1      13.657  11.378 -20.204  1.00  0.00    +0.213 HD
ENDBRANCH  14  16
BRANCH  15  18
ATOM     18  O   UNL     1      15.850  10.286 -18.084  1.00  0.00    -0.385 OA
ATOM     19  H   UNL     1      15.370  11.138 -18.170  1.00  0.00    +0.211 HD
ENDBRANCH  15  18
ENDBRANCH   7   8
ENDBRANCH   1   7
BRANCH   2  20
ATOM     20  O   UNL     1      16.109   6.026 -16.490  1.00  0.00    -0.385 OA
ATOM     21  H   UNL     1      16.189   6.820 -17.055  1.00  0.00    +0.211 HD
ENDBRANCH   2  20
BRANCH   3  22
ATOM     22  O   UNL     1      16.522   3.286 -16.694  1.00  0.00    -0.387 OA
ATOM     23  H   UNL     1      16.655   2.694 -15.924  1.00  0.00    +0.211 HD
ENDBRANCH   3  22
BRANCH   5  24
ATOM     24  C   UNL     1      12.693   3.902 -19.146  1.00  0.00    +0.220 C 
BRANCH  24  25
ATOM     25  O   UNL     1      11.377   4.414 -19.342  1.00  0.00    -0.245 OA
BRANCH  25  26
ATOM     26  S   UNL     1      11.194   5.661 -20.365  1.00  0.00    +0.397 S 
ATOM     27  O   UNL     1      10.261   6.618 -19.816  1.00  0.00    -0.169 OA
ATOM     28  O   UNL     1      11.059   5.133 -21.704  1.00  0.00    -0.169 OA
BRANCH  26  29
ATOM     29  O   UNL     1      12.657   6.333 -20.336  1.00  0.00    -0.264 OA
ATOM     30  H   UNL     1      13.306   5.608 -20.437  1.00  0.00    +0.236 HD
ENDBRANCH  26  29
ENDBRANCH  25  26
ENDBRANCH  24  25
ENDBRANCH   5  24
BRANCH   4  31
ATOM     31  O   UNL     1      14.853   2.361 -18.447  1.00  0.00    -0.387 OA
ATOM     32  H   UNL     1      15.815   2.428 -18.254  1.00  0.00    +0.211 HD
ENDBRANCH   4  31
TORSDOF 11
ENDMDL
MODEL 6
REMARK VINA RESULT:    -5.573     23.100     25.846
REMARK INTER + INTRA:          -9.724
REMARK INTER:                  -8.498
REMARK INTRA:                  -1.225
REMARK UNBOUND:                -1.545
REMARK SMILES O=S(=O)(O)OC[C@@H]1O[C@H](O[C@H]2[C@@H]3OC[C@H]2O[C@@H](O)[C@H]3O)[C@@H](O)[C@H](O)[C@@H]1O
REMARK SMILES IDX 9 1 21 2 23 3 25 4 7 5 8 6 10 7 11 8 14 9 15 10 13 11 16 12
REMARK SMILES IDX 12 13 17 14 19 15 18 16 20 18 22 20 24 22 6 24 5 25 2 26
REMARK SMILES IDX 1 27 3 28 4 29 26 31
REMARK H PARENT 18 17 20 19 22 21 24 23 4 30 26 32
ROOT
ATOM      1  C   UNL     1      13.084   8.581 -17.566  1.00  0.00    +0.282 C 
ATOM      2  C   UNL     1      12.130   9.493 -16.771  1.00  0.00    +0.202 C 
ATOM      3  C   UNL     1      12.005  10.812 -17.514  1.00  0.00    +0.179 C 
ATOM      4  C   UNL     1      11.339  10.566 -18.871  1.00  0.00    +0.177 C 
ATOM      5  C   UNL     1      11.768   9.229 -19.520  1.00  0.00    +0.180 C 
ATOM      6  O   UNL     1      13.008   8.731 -18.982  1.00  0.00    -0.341 OA
ENDROOT
BRANCH   1   7
ATOM      7  O   UNL     1      12.867   7.235 -17.131  1.00  0.00    -0.341 OA
BRANCH   7   8
ATOM      8  C   UNL     1      13.959   6.372 -17.428  1.00  0.00    +0.184 C 
ATOM      9  C   UNL     1      14.872   4.394 -18.293  1.00  0.00    +0.195 C 
ATOM     10  C   UNL     1      13.668   5.318 -18.485  1.00  0.00    +0.179 C 
ATOM     11  O   UNL     1      15.193   4.451 -16.879  1.00  0.00    -0.370 OA
ATOM     12  O   UNL     1      12.408   4.675 -18.219  1.00  0.00    -0.342 OA
ATOM     13  C   UNL     1      14.287   5.417 -16.287  1.00  0.00    +0.184 C 
ATOM     14  C   UNL     1      12.296   4.001 -16.970  1.00  0.00    +0.279 C 
ATOM     15  C   UNL     1      13.011   4.715 -15.801  1.00  0.00    +0.202 C 
BRANCH  14  16
ATOM     16  O   UNL     1      12.794   2.674 -17.120  1.00  0.00    -0.366 OA
ATOM     17  H   UNL     1      12.945   2.576 -18.077  1.00  0.00    +0.213 HD
ENDBRANCH  14  16
BRANCH  15  18
ATOM     18  O   UNL     1      13.320   3.790 -14.751  1.00  0.00    -0.385 OA
ATOM     19  H   UNL     1      13.118   2.913 -15.141  1.00  0.00    +0.211 HD
ENDBRANCH  15  18
ENDBRANCH   7   8
ENDBRANCH   1   7
BRANCH   2  20
ATOM     20  O   UNL     1      12.627   9.744 -15.445  1.00  0.00    -0.385 OA
ATOM     21  H   UNL     1      12.894   8.874 -15.087  1.00  0.00    +0.211 HD
ENDBRANCH   2  20
BRANCH   3  22
ATOM     22  O   UNL     1      11.211  11.741 -16.758  1.00  0.00    -0.387 OA
ATOM     23  H   UNL     1      10.337  11.306 -16.666  1.00  0.00    +0.211 HD
ENDBRANCH   3  22
BRANCH   5  24
ATOM     24  C   UNL     1      10.679   8.140 -19.552  1.00  0.00    +0.220 C 
BRANCH  24  25
ATOM     25  O   UNL     1      11.068   7.139 -20.490  1.00  0.00    -0.245 OA
BRANCH  25  26
ATOM     26  S   UNL     1       9.950   6.056 -20.948  1.00  0.00    +0.397 S 
ATOM     27  O   UNL     1       9.685   6.187 -22.363  1.00  0.00    -0.169 OA
ATOM     28  O   UNL     1       8.892   6.051 -19.963  1.00  0.00    -0.169 OA
BRANCH  26  29
ATOM     29  O   UNL     1      10.724   4.662 -20.724  1.00  0.00    -0.264 OA
ATOM     30  H   UNL     1      10.311   4.228 -19.949  1.00  0.00    +0.236 HD
ENDBRANCH  26  29
ENDBRANCH  25  26
ENDBRANCH  24  25
ENDBRANCH   5  24
BRANCH   4  31
ATOM     31  O   UNL     1       9.917  10.640 -18.715  1.00  0.00    -0.387 OA
ATOM     32  H   UNL     1       9.674  11.531 -19.052  1.00  0.00    +0.211 HD
ENDBRANCH   4  31
TORSDOF 11
ENDMDL
MODEL 7
REMARK VINA RESULT:    -5.514      6.653      9.996
REMARK INTER + INTRA:          -9.637
REMARK INTER:                  -8.467
REMARK INTRA:                  -1.170
REMARK UNBOUND:                -1.545
REMARK SMILES O=S(=O)(O)OC[C@@H]1O[C@H](O[C@H]2[C@@H]3OC[C@H]2O[C@@H](O)[C@H]3O)[C@@H](O)[C@H](O)[C@@H]1O
REMARK SMILES IDX 9 1 21 2 23 3 25 4 7 5 8 6 10 7 11 8 14 9 15 10 13 11 16 12
REMARK SMILES IDX 12 13 17 14 19 15 18 16 20 18 22 20 24 22 6 24 5 25 2 26
REMARK SMILES IDX 1 27 3 28 4 29 26 31
REMARK H PARENT 18 17 20 19 22 21 24 23 4 30 26 32
ROOT
ATOM      1  C   UNL     1       4.963  -9.118  -8.882  1.00  0.00    +0.282 C 
ATOM      2  C   UNL     1       5.710 -10.165  -9.729  1.00  0.00    +0.202 C 
ATOM      3  C   UNL     1       5.286 -11.546  -9.259  1.00  0.00    +0.179 C 
ATOM      4  C   UNL     1       3.795 -11.742  -9.546  1.00  0.00    +0.177 C 
ATOM      5  C   UNL     1       2.967 -10.451  -9.340  1.00  0.00    +0.180 C 
ATOM      6  O   UNL     1       3.642  -9.495  -8.499  1.00  0.00    -0.341 OA
ENDROOT
BRANCH   1   7
ATOM      7  O   UNL     1       5.011  -7.872  -9.583  1.00  0.00    -0.341 OA
BRANCH   7   8
ATOM      8  C   UNL     1       4.158  -6.882  -9.016  1.00  0.00    +0.184 C 
ATOM      9  C   UNL     1       2.547  -5.188  -9.173  1.00  0.00    +0.195 C 
ATOM     10  C   UNL     1       3.007  -6.447  -9.909  1.00  0.00    +0.179 C 
ATOM     11  O   UNL     1       3.744  -4.610  -8.590  1.00  0.00    -0.370 OA
ATOM     12  O   UNL     1       3.477  -6.187 -11.244  1.00  0.00    -0.342 OA
ATOM     13  C   UNL     1       4.832  -5.521  -8.892  1.00  0.00    +0.184 C 
ATOM     14  C   UNL     1       4.466  -5.171 -11.378  1.00  0.00    +0.279 C 
ATOM     15  C   UNL     1       5.492  -5.134 -10.223  1.00  0.00    +0.202 C 
BRANCH  14  16
ATOM     16  O   UNL     1       3.812  -3.911 -11.502  1.00  0.00    -0.366 OA
ATOM     17  H   UNL     1       4.436  -3.361 -12.008  1.00  0.00    +0.213 HD
ENDBRANCH  14  16
BRANCH  15  18
ATOM     18  O   UNL     1       6.097  -3.838 -10.121  1.00  0.00    -0.385 OA
ATOM     19  H   UNL     1       6.739  -3.935  -9.386  1.00  0.00    +0.211 HD
ENDBRANCH  15  18
ENDBRANCH   7   8
ENDBRANCH   1   7
BRANCH   2  20
ATOM     20  O   UNL     1       7.135 -10.035  -9.588  1.00  0.00    -0.385 OA
ATOM     21  H   UNL     1       7.334 -10.236  -8.652  1.00  0.00    +0.211 HD
ENDBRANCH   2  20
BRANCH   3  22
ATOM     22  O   UNL     1       6.037 -12.562  -9.945  1.00  0.00    -0.387 OA
ATOM     23  H   UNL     1       6.428 -13.109  -9.231  1.00  0.00    +0.211 HD
ENDBRANCH   3  22
BRANCH   5  24
ATOM     24  C   UNL     1       2.435  -9.804 -10.631  1.00  0.00    +0.220 C 
BRANCH  24  25
ATOM     25  O   UNL     1       1.037  -9.571 -10.478  1.00  0.00    -0.245 OA
BRANCH  25  26
ATOM     26  S   UNL     1       0.307  -8.604 -11.559  1.00  0.00    +0.397 S 
ATOM     27  O   UNL     1      -0.195  -7.419 -10.901  1.00  0.00    -0.169 OA
ATOM     28  O   UNL     1      -0.524  -9.423 -12.412  1.00  0.00    -0.169 OA
BRANCH  26  29
ATOM     29  O   UNL     1       1.540  -8.159 -12.494  1.00  0.00    -0.264 OA
ATOM     30  H   UNL     1       1.260  -8.299 -13.421  1.00  0.00    +0.236 HD
ENDBRANCH  26  29
ENDBRANCH  25  26
ENDBRANCH  24  25
ENDBRANCH   5  24
BRANCH   4  31
ATOM     31  O   UNL     1       3.636 -12.260 -10.871  1.00  0.00    -0.387 OA
ATOM     32  H   UNL     1       3.141 -11.562 -11.356  1.00  0.00    +0.211 HD
ENDBRANCH   4  31
TORSDOF 11
ENDMDL
MODEL 8
REMARK VINA RESULT:    -5.370     24.351     27.234
REMARK INTER + INTRA:          -9.426
REMARK INTER:                  -8.167
REMARK INTRA:                  -1.259
REMARK UNBOUND:                -1.545
REMARK SMILES O=S(=O)(O)OC[C@@H]1O[C@H](O[C@H]2[C@@H]3OC[C@H]2O[C@@H](O)[C@H]3O)[C@@H](O)[C@H](O)[C@@H]1O
REMARK SMILES IDX 9 1 21 2 23 3 25 4 7 5 8 6 10 7 11 8 14 9 15 10 13 11 16 12
REMARK SMILES IDX 12 13 17 14 19 15 18 16 20 18 22 20 24 22 6 24 5 25 2 26
REMARK SMILES IDX 1 27 3 28 4 29 26 31
REMARK H PARENT 18 17 20 19 22 21 24 23 4 30 26 32
ROOT
ATOM      1  C   UNL     1      12.333   8.462 -19.960  1.00  0.00    +0.282 C 
ATOM      2  C   UNL     1      10.934   7.929 -19.596  1.00  0.00    +0.202 C 
ATOM      3  C   UNL     1      10.567   6.840 -20.589  1.00  0.00    +0.179 C 
ATOM      4  C   UNL     1      11.533   5.663 -20.428  1.00  0.00    +0.177 C 
ATOM      5  C   UNL     1      12.980   6.110 -20.109  1.00  0.00    +0.180 C 
ATOM      6  O   UNL     1      13.226   7.480 -20.482  1.00  0.00    -0.341 OA
ENDROOT
BRANCH   1   7
ATOM      7  O   UNL     1      12.854   9.143 -18.815  1.00  0.00    -0.341 OA
BRANCH   7   8
ATOM      8  C   UNL     1      13.309  10.459 -19.112  1.00  0.00    +0.184 C 
ATOM      9  C   UNL     1      14.449  12.436 -18.576  1.00  0.00    +0.195 C 
ATOM     10  C   UNL     1      14.466  10.942 -18.250  1.00  0.00    +0.179 C 
ATOM     11  O   UNL     1      13.058  12.775 -18.810  1.00  0.00    -0.370 OA
ATOM     12  O   UNL     1      14.211  10.658 -16.863  1.00  0.00    -0.342 OA
ATOM     13  C   UNL     1      12.308  11.537 -18.711  1.00  0.00    +0.184 C 
ATOM     14  C   UNL     1      13.046  11.254 -16.301  1.00  0.00    +0.279 C 
ATOM     15  C   UNL     1      11.841  11.314 -17.266  1.00  0.00    +0.202 C 
BRANCH  14  16
ATOM     16  O   UNL     1      13.378  12.560 -15.839  1.00  0.00    -0.366 OA
ATOM     17  H   UNL     1      13.334  12.495 -14.868  1.00  0.00    +0.213 HD
ENDBRANCH  14  16
BRANCH  15  18
ATOM     18  O   UNL     1      10.925  12.346 -16.875  1.00  0.00    -0.385 OA
ATOM     19  H   UNL     1      10.618  12.725 -17.726  1.00  0.00    +0.211 HD
ENDBRANCH  15  18
ENDBRANCH   7   8
ENDBRANCH   1   7
BRANCH   2  20
ATOM     20  O   UNL     1       9.944   8.971 -19.651  1.00  0.00    -0.385 OA
ATOM     21  H   UNL     1       9.101   8.532 -19.879  1.00  0.00    +0.211 HD
ENDBRANCH   2  20
BRANCH   3  22
ATOM     22  O   UNL     1       9.223   6.384 -20.360  1.00  0.00    -0.387 OA
ATOM     23  H   UNL     1       8.714   7.197 -20.158  1.00  0.00    +0.211 HD
ENDBRANCH   3  22
BRANCH   5  24
ATOM     24  C   UNL     1      13.453   5.814 -18.674  1.00  0.00    +0.220 C 
BRANCH  24  25
ATOM     25  O   UNL     1      13.672   4.410 -18.551  1.00  0.00    -0.245 OA
BRANCH  25  26
ATOM     26  S   UNL     1      13.436   3.732 -17.095  1.00  0.00    +0.397 S 
ATOM     27  O   UNL     1      12.023   3.684 -16.796  1.00  0.00    -0.169 OA
ATOM     28  O   UNL     1      14.400   4.289 -16.173  1.00  0.00    -0.169 OA
BRANCH  26  29
ATOM     29  O   UNL     1      13.934   2.222 -17.346  1.00  0.00    -0.264 OA
ATOM     30  H   UNL     1      14.037   2.113 -18.313  1.00  0.00    +0.236 HD
ENDBRANCH  26  29
ENDBRANCH  25  26
ENDBRANCH  24  25
ENDBRANCH   5  24
BRANCH   4  31
ATOM     31  O   UNL     1      11.027   4.774 -19.427  1.00  0.00    -0.387 OA
ATOM     32  H   UNL     1      10.656   4.014 -19.929  1.00  0.00    +0.211 HD
ENDBRANCH   4  31
TORSDOF 11
ENDMDL
MODEL 9
REMARK VINA RESULT:    -5.333     23.823     26.695
REMARK INTER + INTRA:          -9.371
REMARK INTER:                  -8.362
REMARK INTRA:                  -1.009
REMARK UNBOUND:                -1.545
REMARK SMILES O=S(=O)(O)OC[C@@H]1O[C@H](O[C@H]2[C@@H]3OC[C@H]2O[C@@H](O)[C@H]3O)[C@@H](O)[C@H](O)[C@@H]1O
REMARK SMILES IDX 9 1 21 2 23 3 25 4 7 5 8 6 10 7 11 8 14 9 15 10 13 11 16 12
REMARK SMILES IDX 12 13 17 14 19 15 18 16 20 18 22 20 24 22 6 24 5 25 2 26
REMARK SMILES IDX 1 27 3 28 4 29 26 31
REMARK H PARENT 18 17 20 19 22 21 24 23 4 30 26 32
ROOT
ATOM      1  C   UNL     1      17.418   9.943  -5.667  1.00  0.00    +0.282 C 
ATOM      2  C   UNL     1      17.190  11.301  -6.358  1.00  0.00    +0.202 C 
ATOM      3  C   UNL     1      16.000  11.976  -5.697  1.00  0.00    +0.179 C 
ATOM      4  C   UNL     1      16.341  12.285  -4.237  1.00  0.00    +0.177 C 
ATOM      5  C   UNL     1      17.207  11.187  -3.574  1.00  0.00    +0.180 C 
ATOM      6  O   UNL     1      17.125   9.929  -4.271  1.00  0.00    -0.341 OA
ENDROOT
BRANCH   1   7
ATOM      7  O   UNL     1      18.750   9.517  -5.965  1.00  0.00    -0.341 OA
BRANCH   7   8
ATOM      8  C   UNL     1      18.995   8.163  -5.602  1.00  0.00    +0.184 C 
ATOM      9  C   UNL     1      20.122   6.120  -5.829  1.00  0.00    +0.195 C 
ATOM     10  C   UNL     1      20.341   7.616  -6.054  1.00  0.00    +0.179 C 
ATOM     11  O   UNL     1      18.714   5.882  -6.089  1.00  0.00    -0.370 OA
ATOM     12  O   UNL     1      20.584   7.956  -7.431  1.00  0.00    -0.342 OA
ATOM     13  C   UNL     1      18.120   7.177  -6.367  1.00  0.00    +0.184 C 
ATOM     14  C   UNL     1      19.640   7.467  -8.377  1.00  0.00    +0.279 C 
ATOM     15  C   UNL     1      18.180   7.473  -7.872  1.00  0.00    +0.202 C 
BRANCH  14  16
ATOM     16  O   UNL     1      20.024   6.152  -8.769  1.00  0.00    -0.366 OA
ATOM     17  H   UNL     1      20.940   6.249  -9.087  1.00  0.00    +0.213 HD
ENDBRANCH  14  16
BRANCH  15  18
ATOM     18  O   UNL     1      17.386   6.526  -8.598  1.00  0.00    -0.385 OA
ATOM     19  H   UNL     1      17.889   6.381  -9.427  1.00  0.00    +0.211 HD
ENDBRANCH  15  18
ENDBRANCH   7   8
ENDBRANCH   1   7
BRANCH   2  20
ATOM     20  O   UNL     1      16.922  11.138  -7.761  1.00  0.00    -0.385 OA
ATOM     21  H   UNL     1      16.904  10.174  -7.923  1.00  0.00    +0.211 HD
ENDBRANCH   2  20
BRANCH   3  22
ATOM     22  O   UNL     1      15.677  13.201  -6.377  1.00  0.00    -0.387 OA
ATOM     23  H   UNL     1      16.341  13.271  -7.095  1.00  0.00    +0.211 HD
ENDBRANCH   3  22
BRANCH   5  24
ATOM     24  C   UNL     1      18.666  11.591  -3.290  1.00  0.00    +0.220 C 
BRANCH  24  25
ATOM     25  O   UNL     1      18.786  11.904  -1.904  1.00  0.00    -0.245 OA
BRANCH  25  26
ATOM     26  S   UNL     1      19.160  13.432  -1.504  1.00  0.00    +0.397 S 
ATOM     27  O   UNL     1      19.195  14.259  -2.689  1.00  0.00    -0.169 OA
ATOM     28  O   UNL     1      20.250  13.399  -0.555  1.00  0.00    -0.169 OA
BRANCH  26  29
ATOM     29  O   UNL     1      17.876  13.874  -0.638  1.00  0.00    -0.264 OA
ATOM     30  H   UNL     1      17.121  13.336  -0.954  1.00  0.00    +0.236 HD
ENDBRANCH  26  29
ENDBRANCH  25  26
ENDBRANCH  24  25
ENDBRANCH   5  24
BRANCH   4  31
ATOM     31  O   UNL     1      16.974  13.567  -4.164  1.00  0.00    -0.387 OA
ATOM     32  H   UNL     1      16.380  14.170  -4.665  1.00  0.00    +0.211 HD
ENDBRANCH   4  31
TORSDOF 11
ENDMDL
