MODEL 1
REMARK VINA RESULT:    -6.077      0.000      0.000
REMARK INTER + INTRA:         -10.528
REMARK INTER:                  -8.919
REMARK INTRA:                  -1.609
REMARK UNBOUND:                -1.609
REMARK SMILES O=S(=O)(O)OC[C@@H]1O[C@H](O[C@H]2[C@@H]3OC[C@H]2O[C@@H](O)[C@H]3O)[C@@H](O)[C@H](O)[C@@H]1O
REMARK SMILES IDX 9 1 21 2 23 3 25 4 7 5 8 6 10 7 11 8 14 9 15 10 13 11 16 12
REMARK SMILES IDX 12 13 17 14 19 15 18 16 20 18 22 20 24 22 6 24 5 25 2 26
REMARK SMILES IDX 1 27 3 28 4 29 26 31
REMARK H PARENT 18 17 20 19 22 21 24 23 4 30 26 32
ROOT
ATOM      1  C   UNL     1       6.741 -14.710  -2.980  1.00  0.00    +0.282 C 
ATOM      2  C   UNL     1       5.699 -14.395  -1.889  1.00  0.00    +0.202 C 
ATOM      3  C   UNL     1       6.393 -14.453  -0.539  1.00  0.00    +0.179 C 
ATOM      4  C   UNL     1       7.446 -13.344  -0.464  1.00  0.00    +0.177 C 
ATOM      5  C   UNL     1       8.166 -13.105  -1.812  1.00  0.00    +0.180 C 
ATOM      6  O   UNL     1       8.056 -14.233  -2.701  1.00  0.00    -0.341 OA
ENDROOT
BRANCH   1   7
ATOM      7  O   UNL     1       6.225 -14.238  -4.228  1.00  0.00    -0.341 OA
BRANCH   7   8
ATOM      8  C   UNL     1       5.929 -15.291  -5.140  1.00  0.00    +0.184 C 
ATOM      9  C   UNL     1       5.917 -16.246  -7.280  1.00  0.00    +0.195 C 
ATOM     10  C   UNL     1       6.710 -15.241  -6.444  1.00  0.00    +0.179 C 
ATOM     11  O   UNL     1       4.540 -16.131  -6.837  1.00  0.00    -0.370 OA
ATOM     12  O   UNL     1       6.694 -13.909  -6.988  1.00  0.00    -0.342 OA
ATOM     13  C   UNL     1       4.535 -15.175  -5.746  1.00  0.00    +0.184 C 
ATOM     14  C   UNL     1       5.413 -13.367  -7.293  1.00  0.00    +0.279 C 
ATOM     15  C   UNL     1       4.308 -13.756  -6.285  1.00  0.00    +0.202 C 
BRANCH  14  16
ATOM     16  O   UNL     1       5.048 -13.771  -8.610  1.00  0.00    -0.366 OA
ATOM     17  H   UNL     1       4.546 -13.016  -8.966  1.00  0.00    +0.213 HD
ENDBRANCH  14  16
BRANCH  15  18
ATOM     18  O   UNL     1       3.011 -13.654  -6.887  1.00  0.00    -0.385 OA
ATOM     19  H   UNL     1       2.410 -14.057  -6.224  1.00  0.00    +0.211 HD
ENDBRANCH  15  18
ENDBRANCH   7   8
ENDBRANCH   1   7
BRANCH   2  20
ATOM     20  O   UNL     1       4.618 -15.344  -1.906  1.00  0.00    -0.385 OA
ATOM     21  H   UNL     1       4.996 -16.190  -1.595  1.00  0.00    +0.211 HD
ENDBRANCH   2  20
BRANCH   3  22
ATOM     22  O   UNL     1       5.440 -14.274   0.522  1.00  0.00    -0.387 OA
ATOM     23  H   UNL     1       5.301 -15.173   0.888  1.00  0.00    +0.211 HD
ENDBRANCH   3  22
BRANCH   5  24
ATOM     24  C   UNL     1       7.809 -11.783  -2.517  1.00  0.00    +0.220 C 
BRANCH  24  25
ATOM     25  O   UNL     1       8.985 -11.271  -3.140  1.00  0.00    -0.245 OA
BRANCH  25  26
ATOM     26  S   UNL     1       8.938 -11.000  -4.740  1.00  0.00    +0.397 S 
ATOM     27  O   UNL     1      10.269 -10.732  -5.234  1.00  0.00    -0.169 OA
ATOM     28  O   UNL     1       7.821 -10.127  -5.020  1.00  0.00    -0.169 OA
BRANCH  26  29
ATOM     29  O   UNL     1       8.487 -12.438  -5.307  1.00  0.00    -0.264 OA
ATOM     30  H   UNL     1       8.795 -13.108  -4.664  1.00  0.00    +0.236 HD
ENDBRANCH  26  29
ENDBRANCH  25  26
ENDBRANCH  24  25
ENDBRANCH   5  24
BRANCH   4  31
ATOM     31  O   UNL     1       6.831 -12.146   0.021  1.00  0.00    -0.387 OA
ATOM     32  H   UNL     1       6.158 -11.916  -0.657  1.00  0.00    +0.211 HD
ENDBRANCH   4  31
TORSDOF 11
ENDMDL
MODEL 2
REMARK VINA RESULT:    -6.003      3.111      5.025
REMARK INTER + INTRA:         -10.420
REMARK INTER:                  -9.146
REMARK INTRA:                  -1.273
REMARK UNBOUND:                -1.609
REMARK SMILES O=S(=O)(O)OC[C@@H]1O[C@H](O[C@H]2[C@@H]3OC[C@H]2O[C@@H](O)[C@H]3O)[C@@H](O)[C@H](O)[C@@H]1O
REMARK SMILES IDX 9 1 21 2 23 3 25 4 7 5 8 6 10 7 11 8 14 9 15 10 13 11 16 12
REMARK SMILES IDX 12 13 17 14 19 15 18 16 20 18 22 20 24 22 6 24 5 25 2 26
REMARK SMILES IDX 1 27 3 28 4 29 26 31
REMARK H PARENT 18 17 20 19 22 21 24 23 4 30 26 32
ROOT
ATOM      1  C   UNL     1       6.630 -13.668  -3.005  1.00  0.00    +0.282 C 
ATOM      2  C   UNL     1       6.713 -13.575  -1.470  1.00  0.00    +0.202 C 
ATOM      3  C   UNL     1       5.607 -14.433  -0.882  1.00  0.00    +0.179 C 
ATOM      4  C   UNL     1       5.859 -15.900  -1.241  1.00  0.00    +0.177 C 
ATOM      5  C   UNL     1       6.451 -16.080  -2.659  1.00  0.00    +0.180 C 
ATOM      6  O   UNL     1       6.211 -14.937  -3.502  1.00  0.00    -0.341 OA
ENDROOT
BRANCH   1   7
ATOM      7  O   UNL     1       7.887 -13.243  -3.539  1.00  0.00    -0.341 OA
BRANCH   7   8
ATOM      8  C   UNL     1       8.012 -13.494  -4.935  1.00  0.00    +0.184 C 
ATOM      9  C   UNL     1       9.169 -13.394  -6.971  1.00  0.00    +0.195 C 
ATOM     10  C   UNL     1       9.436 -13.442  -5.465  1.00  0.00    +0.179 C 
ATOM     11  O   UNL     1       7.927 -12.661  -7.129  1.00  0.00    -0.370 OA
ATOM     12  O   UNL     1      10.115 -12.275  -4.970  1.00  0.00    -0.342 OA
ATOM     13  C   UNL     1       7.446 -12.368  -5.792  1.00  0.00    +0.184 C 
ATOM     14  C   UNL     1       9.539 -11.018  -5.310  1.00  0.00    +0.279 C 
ATOM     15  C   UNL     1       7.994 -11.015  -5.317  1.00  0.00    +0.202 C 
BRANCH  14  16
ATOM     16  O   UNL     1      10.043 -10.613  -6.580  1.00  0.00    -0.366 OA
ATOM     17  H   UNL     1       9.882 -11.377  -7.162  1.00  0.00    +0.213 HD
ENDBRANCH  14  16
BRANCH  15  18
ATOM     18  O   UNL     1       7.491  -9.957  -6.144  1.00  0.00    -0.385 OA
ATOM     19  H   UNL     1       7.554  -9.160  -5.574  1.00  0.00    +0.211 HD
ENDBRANCH  15  18
ENDBRANCH   7   8
ENDBRANCH   1   7
BRANCH   2  20
ATOM     20  O   UNL     1       6.552 -12.220  -1.016  1.00  0.00    -0.385 OA
ATOM     21  H   UNL     1       7.369 -11.999  -0.528  1.00  0.00    +0.211 HD
ENDBRANCH   2  20
BRANCH   3  22
ATOM     22  O   UNL     1       5.571 -14.295   0.549  1.00  0.00    -0.387 OA
ATOM     23  H   UNL     1       5.201 -13.401   0.705  1.00  0.00    +0.211 HD
ENDBRANCH   3  22
BRANCH   5  24
ATOM     24  C   UNL     1       7.925 -16.523  -2.700  1.00  0.00    +0.220 C 
BRANCH  24  25
ATOM     25  O   UNL     1       7.972 -17.946  -2.627  1.00  0.00    -0.245 OA
BRANCH  25  26
ATOM     26  S   UNL     1       9.191 -18.621  -1.793  1.00  0.00    +0.397 S 
ATOM     27  O   UNL     1       9.065 -18.301  -0.390  1.00  0.00    -0.169 OA
ATOM     28  O   UNL     1      10.417 -18.405  -2.527  1.00  0.00    -0.169 OA
BRANCH  26  29
ATOM     29  O   UNL     1       8.882 -20.192  -1.966  1.00  0.00    -0.264 OA
ATOM     30  H   UNL     1       8.254 -20.279  -2.711  1.00  0.00    +0.236 HD
ENDBRANCH  26  29
ENDBRANCH  25  26
ENDBRANCH  24  25
ENDBRANCH   5  24
BRANCH   4  31
ATOM     31  O   UNL     1       6.702 -16.489  -0.244  1.00  0.00    -0.387 OA
ATOM     32  H   UNL     1       7.149 -17.235  -0.702  1.00  0.00    +0.211 HD
ENDBRANCH   4  31
TORSDOF 11
ENDMDL
MODEL 3
REMARK VINA RESULT:    -5.929     23.498     26.500
REMARK INTER + INTRA:         -10.311
REMARK INTER:                  -9.395
REMARK INTRA:                  -0.916
REMARK UNBOUND:                -1.609
REMARK SMILES O=S(=O)(O)OC[C@@H]1O[C@H](O[C@H]2[C@@H]3OC[C@H]2O[C@@H](O)[C@H]3O)[C@@H](O)[C@H](O)[C@@H]1O
REMARK SMILES IDX 9 1 21 2 23 3 25 4 7 5 8 6 10 7 11 8 14 9 15 10 13 11 16 12
REMARK SMILES IDX 12 13 17 14 19 15 18 16 20 18 22 20 24 22 6 24 5 25 2 26
REMARK SMILES IDX 1 27 3 28 4 29 26 31
REMARK H PARENT 18 17 20 19 22 21 24 23 4 30 26 32
ROOT
ATOM      1  C   UNL     1      18.618   9.949  -4.681  1.00  0.00    +0.282 C 
ATOM      2  C   UNL     1      17.796  10.450  -3.479  1.00  0.00    +0.202 C 
ATOM      3  C   UNL     1      18.297  11.835  -3.106  1.00  0.00    +0.179 C 
ATOM      4  C   UNL     1      18.012  12.803  -4.259  1.00  0.00    +0.177 C 
ATOM      5  C   UNL     1      18.188  12.150  -5.651  1.00  0.00    +0.180 C 
ATOM      6  O   UNL     1      19.007  10.967  -5.602  1.00  0.00    -0.341 OA
ENDROOT
BRANCH   1   7
ATOM      7  O   UNL     1      17.889   8.883  -5.296  1.00  0.00    -0.341 OA
BRANCH   7   8
ATOM      8  C   UNL     1      18.583   7.640  -5.257  1.00  0.00    +0.184 C 
ATOM      9  C   UNL     1      20.249   6.165  -5.992  1.00  0.00    +0.195 C 
ATOM     10  C   UNL     1      19.967   7.664  -5.888  1.00  0.00    +0.179 C 
ATOM     11  O   UNL     1      18.964   5.535  -6.225  1.00  0.00    -0.370 OA
ATOM     12  O   UNL     1      19.925   8.326  -7.165  1.00  0.00    -0.342 OA
ATOM     13  C   UNL     1      17.970   6.591  -6.177  1.00  0.00    +0.184 C 
ATOM     14  C   UNL     1      19.072   7.748  -8.147  1.00  0.00    +0.279 C 
ATOM     15  C   UNL     1      17.753   7.177  -7.579  1.00  0.00    +0.202 C 
BRANCH  14  16
ATOM     16  O   UNL     1      19.794   6.734  -8.841  1.00  0.00    -0.366 OA
ATOM     17  H   UNL     1      19.257   5.930  -8.726  1.00  0.00    +0.213 HD
ENDBRANCH  14  16
BRANCH  15  18
ATOM     18  O   UNL     1      17.209   6.182  -8.456  1.00  0.00    -0.385 OA
ATOM     19  H   UNL     1      17.043   5.414  -7.868  1.00  0.00    +0.211 HD
ENDBRANCH  15  18
ENDBRANCH   7   8
ENDBRANCH   1   7
BRANCH   2  20
ATOM     20  O   UNL     1      17.937   9.577  -2.345  1.00  0.00    -0.385 OA
ATOM     21  H   UNL     1      17.128   9.028  -2.324  1.00  0.00    +0.211 HD
ENDBRANCH   2  20
BRANCH   3  22
ATOM     22  O   UNL     1      17.636  12.306  -1.919  1.00  0.00    -0.387 OA
ATOM     23  H   UNL     1      17.744  11.580  -1.269  1.00  0.00    +0.211 HD
ENDBRANCH   3  22
BRANCH   5  24
ATOM     24  C   UNL     1      16.881  11.911  -6.428  1.00  0.00    +0.220 C 
BRANCH  24  25
ATOM     25  O   UNL     1      16.586  13.080  -7.189  1.00  0.00    -0.245 OA
BRANCH  25  26
ATOM     26  S   UNL     1      15.180  13.122  -8.000  1.00  0.00    +0.397 S 
ATOM     27  O   UNL     1      14.175  13.798  -7.211  1.00  0.00    -0.169 OA
ATOM     28  O   UNL     1      14.954  11.819  -8.583  1.00  0.00    -0.169 OA
BRANCH  26  29
ATOM     29  O   UNL     1      15.543  14.072  -9.248  1.00  0.00    -0.264 OA
ATOM     30  H   UNL     1      16.501  14.262  -9.192  1.00  0.00    +0.236 HD
ENDBRANCH  26  29
ENDBRANCH  25  26
ENDBRANCH  24  25
ENDBRANCH   5  24
BRANCH   4  31
ATOM     31  O   UNL     1      16.698  13.350  -4.099  1.00  0.00    -0.387 OA
ATOM     32  H   UNL     1      16.749  14.247  -4.498  1.00  0.00    +0.211 HD
ENDBRANCH   4  31
TORSDOF 11
ENDMDL
MODEL 4
REMARK VINA RESULT:    -5.850     23.288     26.085
REMARK INTER + INTRA:         -10.196
REMARK INTER:                  -8.555
REMARK INTRA:                  -1.641
REMARK UNBOUND:                -1.609
REMARK SMILES O=S(=O)(O)OC[C@@H]1O[C@H](O[C@H]2[C@@H]3OC[C@H]2O[C@@H](O)[C@H]3O)[C@@H](O)[C@H](O)[C@@H]1O
REMARK SMILES IDX 9 1 21 2 23 3 25 4 7 5 8 6 10 7 11 8 14 9 15 10 13 11 16 12
REMARK SMILES IDX 12 13 17 14 19 15 18 16 20 18 22 20 24 22 6 24 5 25 2 26
REMARK SMILES IDX 1 27 3 28 4 29 26 31
REMARK H PARENT 18 17 20 19 22 21 24 23 4 30 26 32
ROOT
ATOM      1  C   UNL     1      14.110   7.710 -18.685  1.00  0.00    +0.282 C 
ATOM      2  C   UNL     1      14.129   8.831 -17.628  1.00  0.00    +0.202 C 
ATOM      3  C   UNL     1      14.242  10.163 -18.352  1.00  0.00    +0.179 C 
ATOM      4  C   UNL     1      12.985  10.387 -19.198  1.00  0.00    +0.177 C 
ATOM      5  C   UNL     1      12.448   9.083 -19.835  1.00  0.00    +0.180 C 
ATOM      6  O   UNL     1      13.451   8.052 -19.903  1.00  0.00    -0.341 OA
ENDROOT
BRANCH   1   7
ATOM      7  O   UNL     1      13.576   6.536 -18.067  1.00  0.00    -0.341 OA
BRANCH   7   8
ATOM      8  C   UNL     1      14.516   5.469 -17.997  1.00  0.00    +0.184 C 
ATOM      9  C   UNL     1      15.135   3.222 -18.247  1.00  0.00    +0.195 C 
ATOM     10  C   UNL     1      14.149   4.242 -18.818  1.00  0.00    +0.179 C 
ATOM     11  O   UNL     1      15.309   3.578 -16.851  1.00  0.00    -0.370 OA
ATOM     12  O   UNL     1      12.772   3.887 -18.603  1.00  0.00    -0.342 OA
ATOM     13  C   UNL     1      14.538   4.788 -16.633  1.00  0.00    +0.184 C 
ATOM     14  C   UNL     1      12.404   3.570 -17.264  1.00  0.00    +0.279 C 
ATOM     15  C   UNL     1      13.110   4.434 -16.195  1.00  0.00    +0.202 C 
BRANCH  14  16
ATOM     16  O   UNL     1      12.662   2.187 -17.035  1.00  0.00    -0.366 OA
ATOM     17  H   UNL     1      11.781   1.772 -17.027  1.00  0.00    +0.213 HD
ENDBRANCH  14  16
BRANCH  15  18
ATOM     18  O   UNL     1      13.130   3.762 -14.929  1.00  0.00    -0.385 OA
ATOM     19  H   UNL     1      12.996   4.483 -14.277  1.00  0.00    +0.211 HD
ENDBRANCH  15  18
ENDBRANCH   7   8
ENDBRANCH   1   7
BRANCH   2  20
ATOM     20  O   UNL     1      15.242   8.687 -16.729  1.00  0.00    -0.385 OA
ATOM     21  H   UNL     1      15.267   7.742 -16.480  1.00  0.00    +0.211 HD
ENDBRANCH   2  20
BRANCH   3  22
ATOM     22  O   UNL     1      14.374  11.237 -17.406  1.00  0.00    -0.387 OA
ATOM     23  H   UNL     1      13.491  11.311 -16.987  1.00  0.00    +0.211 HD
ENDBRANCH   3  22
BRANCH   5  24
ATOM     24  C   UNL     1      11.128   8.561 -19.238  1.00  0.00    +0.220 C 
BRANCH  24  25
ATOM     25  O   UNL     1      10.259   8.199 -20.309  1.00  0.00    -0.245 OA
BRANCH  25  26
ATOM     26  S   UNL     1       9.982   6.619 -20.559  1.00  0.00    +0.397 S 
ATOM     27  O   UNL     1      10.189   6.296 -21.952  1.00  0.00    -0.169 OA
ATOM     28  O   UNL     1       8.774   6.253 -19.854  1.00  0.00    -0.169 OA
BRANCH  26  29
ATOM     29  O   UNL     1      11.171   5.935 -19.716  1.00  0.00    -0.264 OA
ATOM     30  H   UNL     1      11.968   6.487 -19.849  1.00  0.00    +0.236 HD
ENDBRANCH  26  29
ENDBRANCH  25  26
ENDBRANCH  24  25
ENDBRANCH   5  24
BRANCH   4  31
ATOM     31  O   UNL     1      11.987  11.027 -18.395  1.00  0.00    -0.387 OA
ATOM     32  H   UNL     1      12.095  10.634 -17.500  1.00  0.00    +0.211 HD
ENDBRANCH   4  31
TORSDOF 11
ENDMDL
MODEL 5
REMARK VINA RESULT:    -5.666     24.099     27.040
REMARK INTER + INTRA:          -9.925
REMARK INTER:                  -8.836
REMARK INTRA:                  -1.089
REMARK UNBOUND:                -1.609
REMARK SMILES O=S(=O)(O)OC[C@@H]1O[C@H](O[C@H]2[C@@H]3OC[C@H]2O[C@@H](O)[C@H]3O)[C@@H](O)[C@H](O)[C@@H]1O
REMARK SMILES IDX 9 1 21 2 23 3 25 4 7 5 8 6 10 7 11 8 14 9 15 10 13 11 16 12
REMARK SMILES IDX 12 13 17 14 19 15 18 16 20 18 22 20 24 22 6 24 5 25 2 26
REMARK SMILES IDX 1 27 3 28 4 29 26 31
REMARK H PARENT 18 17 20 19 22 21 24 23 4 30 26 32
ROOT
ATOM      1  C   UNL     1      12.212   8.132 -19.989  1.00  0.00    +0.282 C 
ATOM      2  C   UNL     1      10.890   7.360 -20.168  1.00  0.00    +0.202 C 
ATOM      3  C   UNL     1      11.190   6.074 -20.918  1.00  0.00    +0.179 C 
ATOM      4  C   UNL     1      12.096   5.187 -20.059  1.00  0.00    +0.177 C 
ATOM      5  C   UNL     1      13.138   5.995 -19.250  1.00  0.00    +0.180 C 
ATOM      6  O   UNL     1      13.360   7.308 -19.799  1.00  0.00    -0.341 OA
ENDROOT
BRANCH   1   7
ATOM      7  O   UNL     1      12.024   9.085 -18.939  1.00  0.00    -0.341 OA
BRANCH   7   8
ATOM      8  C   UNL     1      12.939  10.174 -19.007  1.00  0.00    +0.184 C 
ATOM      9  C   UNL     1      14.647  11.513 -18.123  1.00  0.00    +0.195 C 
ATOM     10  C   UNL     1      14.106  10.086 -18.036  1.00  0.00    +0.179 C 
ATOM     11  O   UNL     1      13.492  12.361 -18.355  1.00  0.00    -0.370 OA
ATOM     12  O   UNL     1      13.640   9.732 -16.722  1.00  0.00    -0.342 OA
ATOM     13  C   UNL     1      12.348  11.477 -18.481  1.00  0.00    +0.184 C 
ATOM     14  C   UNL     1      12.713  10.629 -16.119  1.00  0.00    +0.279 C 
ATOM     15  C   UNL     1      11.701  11.249 -17.109  1.00  0.00    +0.202 C 
BRANCH  14  16
ATOM     16  O   UNL     1      13.439  11.653 -15.445  1.00  0.00    -0.366 OA
ATOM     17  H   UNL     1      12.811  12.394 -15.377  1.00  0.00    +0.213 HD
ENDBRANCH  14  16
BRANCH  15  18
ATOM     18  O   UNL     1      11.176  12.481 -16.596  1.00  0.00    -0.385 OA
ATOM     19  H   UNL     1      11.858  12.781 -15.958  1.00  0.00    +0.211 HD
ENDBRANCH  15  18
ENDBRANCH   7   8
ENDBRANCH   1   7
BRANCH   2  20
ATOM     20  O   UNL     1       9.929   8.129 -20.913  1.00  0.00    -0.385 OA
ATOM     21  H   UNL     1       9.261   7.491 -21.232  1.00  0.00    +0.211 HD
ENDBRANCH   2  20
BRANCH   3  22
ATOM     22  O   UNL     1       9.972   5.366 -21.207  1.00  0.00    -0.387 OA
ATOM     23  H   UNL     1       9.574   5.184 -20.330  1.00  0.00    +0.211 HD
ENDBRANCH   3  22
BRANCH   5  24
ATOM     24  C   UNL     1      12.890   6.043 -17.731  1.00  0.00    +0.220 C 
BRANCH  24  25
ATOM     25  O   UNL     1      13.904   5.279 -17.083  1.00  0.00    -0.245 OA
BRANCH  25  26
ATOM     26  S   UNL     1      13.483   3.844 -16.450  1.00  0.00    +0.397 S 
ATOM     27  O   UNL     1      14.503   2.861 -16.734  1.00  0.00    -0.169 OA
ATOM     28  O   UNL     1      12.086   3.612 -16.742  1.00  0.00    -0.169 OA
BRANCH  26  29
ATOM     29  O   UNL     1      13.526   4.151 -14.870  1.00  0.00    -0.264 OA
ATOM     30  H   UNL     1      12.677   3.839 -14.496  1.00  0.00    +0.236 HD
ENDBRANCH  26  29
ENDBRANCH  25  26
ENDBRANCH  24  25
ENDBRANCH   5  24
BRANCH   4  31
ATOM     31  O   UNL     1      11.284   4.375 -19.204  1.00  0.00    -0.387 OA
ATOM     32  H   UNL     1      11.630   4.540 -18.298  1.00  0.00    +0.211 HD
ENDBRANCH   4  31
TORSDOF 11
ENDMDL
MODEL 6
REMARK VINA RESULT:    -5.623      7.944     10.825
REMARK INTER + INTRA:          -9.862
REMARK INTER:                  -8.099
REMARK INTRA:                  -1.763
REMARK UNBOUND:                -1.609
REMARK SMILES O=S(=O)(O)OC[C@@H]1O[C@H](O[C@H]2[C@@H]3OC[C@H]2O[C@@H](O)[C@H]3O)[C@@H](O)[C@H](O)[C@@H]1O
REMARK SMILES IDX 9 1 21 2 23 3 25 4 7 5 8 6 10 7 11 8 14 9 15 10 13 11 16 12
REMARK SMILES IDX 12 13 17 14 19 15 18 16 20 18 22 20 24 22 6 24 5 25 2 26
REMARK SMILES IDX 1 27 3 28 4 29 26 31
REMARK H PARENT 18 17 20 19 22 21 24 23 4 30 26 32
ROOT
ATOM      1  C   UNL     1       4.989  -6.611 -11.712  1.00  0.00    +0.282 C 
ATOM      2  C   UNL     1       5.000  -5.084 -11.504  1.00  0.00    +0.202 C 
ATOM      3  C   UNL     1       3.586  -4.641 -11.166  1.00  0.00    +0.179 C 
ATOM      4  C   UNL     1       3.170  -5.257  -9.827  1.00  0.00    +0.177 C 
ATOM      5  C   UNL     1       3.712  -6.694  -9.630  1.00  0.00    +0.180 C 
ATOM      6  O   UNL     1       4.074  -7.318 -10.876  1.00  0.00    -0.341 OA
ENDROOT
BRANCH   1   7
ATOM      7  O   UNL     1       6.335  -7.078 -11.594  1.00  0.00    -0.341 OA
BRANCH   7   8
ATOM      8  C   UNL     1       6.828  -7.663 -12.795  1.00  0.00    +0.184 C 
ATOM      9  C   UNL     1       8.413  -8.883 -14.016  1.00  0.00    +0.195 C 
ATOM     10  C   UNL     1       7.873  -8.749 -12.592  1.00  0.00    +0.179 C 
ATOM     11  O   UNL     1       8.327  -7.557 -14.599  1.00  0.00    -0.370 OA
ATOM     12  O   UNL     1       8.867  -8.318 -11.644  1.00  0.00    -0.342 OA
ATOM     13  C   UNL     1       7.696  -6.709 -13.606  1.00  0.00    +0.184 C 
ATOM     14  C   UNL     1       9.599  -7.147 -11.988  1.00  0.00    +0.279 C 
ATOM     15  C   UNL     1       8.760  -6.066 -12.706  1.00  0.00    +0.202 C 
BRANCH  14  16
ATOM     16  O   UNL     1      10.715  -7.523 -12.790  1.00  0.00    -0.366 OA
ATOM     17  H   UNL     1      10.683  -8.496 -12.812  1.00  0.00    +0.213 HD
ENDBRANCH  14  16
BRANCH  15  18
ATOM     18  O   UNL     1       9.600  -5.194 -13.473  1.00  0.00    -0.385 OA
ATOM     19  H   UNL     1       9.134  -4.331 -13.446  1.00  0.00    +0.211 HD
ENDBRANCH  15  18
ENDBRANCH   7   8
ENDBRANCH   1   7
BRANCH   2  20
ATOM     20  O   UNL     1       5.439  -4.396 -12.688  1.00  0.00    -0.385 OA
ATOM     21  H   UNL     1       6.254  -4.851 -12.978  1.00  0.00    +0.211 HD
ENDBRANCH   2  20
BRANCH   3  22
ATOM     22  O   UNL     1       3.519  -3.209 -11.069  1.00  0.00    -0.387 OA
ATOM     23  H   UNL     1       2.640  -3.026 -10.674  1.00  0.00    +0.211 HD
ENDBRANCH   3  22
BRANCH   5  24
ATOM     24  C   UNL     1       4.823  -6.832  -8.574  1.00  0.00    +0.220 C 
BRANCH  24  25
ATOM     25  O   UNL     1       4.944  -8.209  -8.223  1.00  0.00    -0.245 OA
BRANCH  25  26
ATOM     26  S   UNL     1       6.319  -8.974  -8.620  1.00  0.00    +0.397 S 
ATOM     27  O   UNL     1       6.088  -9.852  -9.745  1.00  0.00    -0.169 OA
ATOM     28  O   UNL     1       6.952  -9.431  -7.404  1.00  0.00    -0.169 OA
BRANCH  26  29
ATOM     29  O   UNL     1       7.242  -7.758  -9.131  1.00  0.00    -0.264 OA
ATOM     30  H   UNL     1       6.717  -7.260  -9.790  1.00  0.00    +0.236 HD
ENDBRANCH  26  29
ENDBRANCH  25  26
ENDBRANCH  24  25
ENDBRANCH   5  24
BRANCH   4  31
ATOM     31  O   UNL     1       3.583  -4.392  -8.764  1.00  0.00    -0.387 OA
ATOM     32  H   UNL     1       3.331  -3.489  -9.063  1.00  0.00    +0.211 HD
ENDBRANCH   4  31
TORSDOF 11
ENDMDL
MODEL 7
REMARK VINA RESULT:    -5.567      8.974      9.965
REMARK INTER + INTRA:          -9.780
REMARK INTER:                  -8.625
REMARK INTRA:                  -1.155
REMARK UNBOUND:                -1.609
REMARK SMILES O=S(=O)(O)OC[C@@H]1O[C@H](O[C@H]2[C@@H]3OC[C@H]2O[C@@H](O)[C@H]3O)[C@@H](O)[C@H](O)[C@@H]1O
REMARK SMILES IDX 9 1 21 2 23 3 25 4 7 5 8 6 10 7 11 8 14 9 15 10 13 11 16 12
REMARK SMILES IDX 12 13 17 14 19 15 18 16 20 18 22 20 24 22 6 24 5 25 2 26
REMARK SMILES IDX 1 27 3 28 4 29 26 31
REMARK H PARENT 18 17 20 19 22 21 24 23 4 30 26 32
ROOT
ATOM      1  C   UNL     1       2.053  -8.274  -9.832  1.00  0.00    +0.282 C 
ATOM      2  C   UNL     1       1.403  -6.894  -9.618  1.00  0.00    +0.202 C 
ATOM      3  C   UNL     1       2.089  -6.224  -8.441  1.00  0.00    +0.179 C 
ATOM      4  C   UNL     1       3.556  -5.961  -8.792  1.00  0.00    +0.177 C 
ATOM      5  C   UNL     1       4.182  -7.088  -9.648  1.00  0.00    +0.180 C 
ATOM      6  O   UNL     1       3.450  -8.325  -9.546  1.00  0.00    -0.341 OA
ENDROOT
BRANCH   1   7
ATOM      7  O   UNL     1       1.735  -8.708 -11.157  1.00  0.00    -0.341 OA
BRANCH   7   8
ATOM      8  C   UNL     1       2.236 -10.008 -11.452  1.00  0.00    +0.184 C 
ATOM      9  C   UNL     1       2.859 -11.708 -12.940  1.00  0.00    +0.195 C 
ATOM     10  C   UNL     1       2.749 -10.184 -12.873  1.00  0.00    +0.179 C 
ATOM     11  O   UNL     1       1.791 -12.220 -12.102  1.00  0.00    -0.370 OA
ATOM     12  O   UNL     1       1.809  -9.640 -13.817  1.00  0.00    -0.342 OA
ATOM     13  C   UNL     1       1.141 -11.066 -11.509  1.00  0.00    +0.184 C 
ATOM     14  C   UNL     1       0.506 -10.211 -13.811  1.00  0.00    +0.279 C 
ATOM     15  C   UNL     1      -0.011 -10.589 -12.404  1.00  0.00    +0.202 C 
BRANCH  14  16
ATOM     16  O   UNL     1       0.503 -11.353 -14.664  1.00  0.00    -0.366 OA
ATOM     17  H   UNL     1       0.750 -11.005 -15.539  1.00  0.00    +0.213 HD
ENDBRANCH  14  16
BRANCH  15  18
ATOM     18  O   UNL     1      -1.027 -11.597 -12.488  1.00  0.00    -0.385 OA
ATOM     19  H   UNL     1      -1.474 -11.412 -13.341  1.00  0.00    +0.211 HD
ENDBRANCH  15  18
ENDBRANCH   7   8
ENDBRANCH   1   7
BRANCH   2  20
ATOM     20  O   UNL     1      -0.003  -7.013  -9.340  1.00  0.00    -0.385 OA
ATOM     21  H   UNL     1      -0.070  -7.363  -8.431  1.00  0.00    +0.211 HD
ENDBRANCH   2  20
BRANCH   3  22
ATOM     22  O   UNL     1       1.447  -4.976  -8.129  1.00  0.00    -0.387 OA
ATOM     23  H   UNL     1       1.062  -5.108  -7.237  1.00  0.00    +0.211 HD
ENDBRANCH   3  22
BRANCH   5  24
ATOM     24  C   UNL     1       4.470  -6.712 -11.113  1.00  0.00    +0.220 C 
BRANCH  24  25
ATOM     25  O   UNL     1       5.881  -6.613 -11.286  1.00  0.00    -0.245 OA
BRANCH  25  26
ATOM     26  S   UNL     1       6.506  -5.144 -11.586  1.00  0.00    +0.397 S 
ATOM     27  O   UNL     1       7.802  -5.277 -12.211  1.00  0.00    -0.169 OA
ATOM     28  O   UNL     1       6.294  -4.315 -10.421  1.00  0.00    -0.169 OA
BRANCH  26  29
ATOM     29  O   UNL     1       5.487  -4.568 -12.691  1.00  0.00    -0.264 OA
ATOM     30  H   UNL     1       4.782  -5.237 -12.806  1.00  0.00    +0.236 HD
ENDBRANCH  26  29
ENDBRANCH  25  26
ENDBRANCH  24  25
ENDBRANCH   5  24
BRANCH   4  31
ATOM     31  O   UNL     1       3.663  -4.690  -9.443  1.00  0.00    -0.387 OA
ATOM     32  H   UNL     1       3.087  -4.090  -8.917  1.00  0.00    +0.211 HD
ENDBRANCH   4  31
TORSDOF 11
ENDMDL
MODEL 8
REMARK VINA RESULT:    -5.367     25.544     28.351
REMARK INTER + INTRA:          -9.486
REMARK INTER:                  -8.538
REMARK INTRA:                  -0.948
REMARK UNBOUND:                -1.609
REMARK SMILES O=S(=O)(O)OC[C@@H]1O[C@H](O[C@H]2[C@@H]3OC[C@H]2O[C@@H](O)[C@H]3O)[C@@H](O)[C@H](O)[C@@H]1O
REMARK SMILES IDX 9 1 21 2 23 3 25 4 7 5 8 6 10 7 11 8 14 9 15 10 13 11 16 12
REMARK SMILES IDX 12 13 17 14 19 15 18 16 20 18 22 20 24 22 6 24 5 25 2 26
REMARK SMILES IDX 1 27 3 28 4 29 26 31
REMARK H PARENT 18 17 20 19 22 21 24 23 4 30 26 32
ROOT
ATOM      1  C   UNL     1      13.079   9.308 -17.558  1.00  0.00    +0.282 C 
ATOM      2  C   UNL     1      14.544   9.153 -18.011  1.00  0.00    +0.202 C 
ATOM      3  C   UNL     1      15.109   7.899 -17.368  1.00  0.00    +0.179 C 
ATOM      4  C   UNL     1      14.359   6.675 -17.901  1.00  0.00    +0.177 C 
ATOM      5  C   UNL     1      12.852   6.943 -18.128  1.00  0.00    +0.180 C 
ATOM      6  O   UNL     1      12.379   8.079 -17.379  1.00  0.00    -0.341 OA
ENDROOT
BRANCH   1   7
ATOM      7  O   UNL     1      12.430  10.197 -18.471  1.00  0.00    -0.341 OA
BRANCH   7   8
ATOM      8  C   UNL     1      11.268  10.808 -17.920  1.00  0.00    +0.184 C 
ATOM      9  C   UNL     1       9.558  12.411 -17.928  1.00  0.00    +0.195 C 
ATOM     10  C   UNL     1      10.473  11.661 -18.897  1.00  0.00    +0.179 C 
ATOM     11  O   UNL     1      10.330  12.591 -16.713  1.00  0.00    -0.370 OA
ATOM     12  O   UNL     1      11.352  12.527 -19.637  1.00  0.00    -0.342 OA
ATOM     13  C   UNL     1      11.595  11.912 -16.922  1.00  0.00    +0.184 C 
ATOM     14  C   UNL     1      12.123  13.447 -18.871  1.00  0.00    +0.279 C 
ATOM     15  C   UNL     1      12.623  12.882 -17.523  1.00  0.00    +0.202 C 
BRANCH  14  16
ATOM     16  O   UNL     1      11.351  14.626 -18.660  1.00  0.00    -0.366 OA
ATOM     17  H   UNL     1      10.573  14.515 -19.235  1.00  0.00    +0.213 HD
ENDBRANCH  14  16
BRANCH  15  18
ATOM     18  O   UNL     1      12.907  13.941 -16.600  1.00  0.00    -0.385 OA
ATOM     19  H   UNL     1      12.790  13.525 -15.719  1.00  0.00    +0.211 HD
ENDBRANCH  15  18
ENDBRANCH   7   8
ENDBRANCH   1   7
BRANCH   2  20
ATOM     20  O   UNL     1      15.338  10.285 -17.617  1.00  0.00    -0.385 OA
ATOM     21  H   UNL     1      16.115  10.291 -18.211  1.00  0.00    +0.211 HD
ENDBRANCH   2  20
BRANCH   3  22
ATOM     22  O   UNL     1      16.508   7.766 -17.672  1.00  0.00    -0.387 OA
ATOM     23  H   UNL     1      16.851   7.135 -17.004  1.00  0.00    +0.211 HD
ENDBRANCH   3  22
BRANCH   5  24
ATOM     24  C   UNL     1      12.415   7.006 -19.603  1.00  0.00    +0.220 C 
BRANCH  24  25
ATOM     25  O   UNL     1      11.026   7.321 -19.650  1.00  0.00    -0.245 OA
BRANCH  25  26
ATOM     26  S   UNL     1      10.041   6.287 -20.423  1.00  0.00    +0.397 S 
ATOM     27  O   UNL     1      10.279   6.351 -21.847  1.00  0.00    -0.169 OA
ATOM     28  O   UNL     1       8.718   6.411 -19.856  1.00  0.00    -0.169 OA
BRANCH  26  29
ATOM     29  O   UNL     1      10.578   4.862 -19.902  1.00  0.00    -0.264 OA
ATOM     30  H   UNL     1      11.330   5.043 -19.302  1.00  0.00    +0.236 HD
ENDBRANCH  26  29
ENDBRANCH  25  26
ENDBRANCH  24  25
ENDBRANCH   5  24
BRANCH   4  31
ATOM     31  O   UNL     1      14.996   6.220 -19.100  1.00  0.00    -0.387 OA
ATOM     32  H   UNL     1      15.959   6.254 -18.902  1.00  0.00    +0.211 HD
ENDBRANCH   4  31
TORSDOF 11
ENDMDL
MODEL 9
REMARK VINA RESULT:    -5.308     23.708     26.543
REMARK INTER + INTRA:          -9.399
REMARK INTER:                  -7.635
REMARK INTRA:                  -1.765
REMARK UNBOUND:                -1.609
REMARK SMILES O=S(=O)(O)OC[C@@H]1O[C@H](O[C@H]2[C@@H]3OC[C@H]2O[C@@H](O)[C@H]3O)[C@@H](O)[C@H](O)[C@@H]1O
REMARK SMILES IDX 9 1 21 2 23 3 25 4 7 5 8 6 10 7 11 8 14 9 15 10 13 11 16 12
REMARK SMILES IDX 12 13 17 14 19 15 18 16 20 18 22 20 24 22 6 24 5 25 2 26
REMARK SMILES IDX 1 27 3 28 4 29 26 31
REMARK H PARENT 18 17 20 19 22 21 24 23 4 30 26 32
ROOT
ATOM      1  C   UNL     1      13.745   6.250 -16.950  1.00  0.00    +0.282 C 
ATOM      2  C   UNL     1      15.188   5.872 -17.338  1.00  0.00    +0.202 C 
ATOM      3  C   UNL     1      15.459   4.463 -16.841  1.00  0.00    +0.179 C 
ATOM      4  C   UNL     1      14.542   3.482 -17.577  1.00  0.00    +0.177 C 
ATOM      5  C   UNL     1      13.133   4.062 -17.849  1.00  0.00    +0.180 C 
ATOM      6  O   UNL     1      12.818   5.166 -16.980  1.00  0.00    -0.341 OA
ENDROOT
BRANCH   1   7
ATOM      7  O   UNL     1      13.346   7.354 -17.768  1.00  0.00    -0.341 OA
BRANCH   7   8
ATOM      8  C   UNL     1      12.867   8.461 -17.012  1.00  0.00    +0.184 C 
ATOM      9  C   UNL     1      11.871  10.574 -16.822  1.00  0.00    +0.195 C 
ATOM     10  C   UNL     1      11.888   9.360 -17.752  1.00  0.00    +0.179 C 
ATOM     11  O   UNL     1      13.204  10.659 -16.257  1.00  0.00    -0.370 OA
ATOM     12  O   UNL     1      12.379   9.659 -19.071  1.00  0.00    -0.342 OA
ATOM     13  C   UNL     1      13.940   9.513 -16.758  1.00  0.00    +0.184 C 
ATOM     14  C   UNL     1      13.633  10.328 -19.140  1.00  0.00    +0.279 C 
ATOM     15  C   UNL     1      14.651   9.873 -18.070  1.00  0.00    +0.202 C 
BRANCH  14  16
ATOM     16  O   UNL     1      13.409  11.732 -19.045  1.00  0.00    -0.366 OA
ATOM     17  H   UNL     1      13.949  12.016 -18.287  1.00  0.00    +0.213 HD
ENDBRANCH  14  16
BRANCH  15  18
ATOM     18  O   UNL     1      15.637  10.888 -17.839  1.00  0.00    -0.385 OA
ATOM     19  H   UNL     1      15.158  11.570 -17.322  1.00  0.00    +0.211 HD
ENDBRANCH  15  18
ENDBRANCH   7   8
ENDBRANCH   1   7
BRANCH   2  20
ATOM     20  O   UNL     1      16.143   6.772 -16.750  1.00  0.00    -0.385 OA
ATOM     21  H   UNL     1      15.992   6.734 -15.785  1.00  0.00    +0.211 HD
ENDBRANCH   2  20
BRANCH   3  22
ATOM     22  O   UNL     1      16.829   4.101 -17.082  1.00  0.00    -0.387 OA
ATOM     23  H   UNL     1      17.272   4.942 -17.322  1.00  0.00    +0.211 HD
ENDBRANCH   3  22
BRANCH   5  24
ATOM     24  C   UNL     1      12.836   4.390 -19.323  1.00  0.00    +0.220 C 
BRANCH  24  25
ATOM     25  O   UNL     1      11.500   4.880 -19.418  1.00  0.00    -0.245 OA
BRANCH  25  26
ATOM     26  S   UNL     1      11.223   6.135 -20.409  1.00  0.00    +0.397 S 
ATOM     27  O   UNL     1      10.227   7.009 -19.831  1.00  0.00    -0.169 OA
ATOM     28  O   UNL     1      11.115   5.632 -21.759  1.00  0.00    -0.169 OA
BRANCH  26  29
ATOM     29  O   UNL     1      12.634   6.909 -20.370  1.00  0.00    -0.264 OA
ATOM     30  H   UNL     1      12.565   7.658 -20.996  1.00  0.00    +0.236 HD
ENDBRANCH  26  29
ENDBRANCH  25  26
ENDBRANCH  24  25
ENDBRANCH   5  24
BRANCH   4  31
ATOM     31  O   UNL     1      15.179   3.064 -18.790  1.00  0.00    -0.387 OA
ATOM     32  H   UNL     1      15.009   2.096 -18.842  1.00  0.00    +0.211 HD
ENDBRANCH   4  31
TORSDOF 11
ENDMDL
