MODEL 1
REMARK VINA RESULT:    -7.586      0.000      0.000
REMARK INTER + INTRA:         -12.325
REMARK INTER:                 -11.133
REMARK INTRA:                  -1.192
REMARK UNBOUND:                -1.192
REMARK SMILES O=S(=O)(O)OC[C@@H]1O[C@H](O[C@H]2[C@@H]3OC[C@H]2O[C@@H](O)[C@H]3O)[C@@H](O)[C@H](O)[C@@H]1O
REMARK SMILES IDX 9 1 21 2 23 3 25 4 7 5 8 6 10 7 11 8 14 9 15 10 13 11 16 12
REMARK SMILES IDX 12 13 17 14 19 15 18 16 20 18 22 20 24 22 6 24 5 25 2 26
REMARK SMILES IDX 1 27 3 28 4 29 26 31
REMARK H PARENT 18 17 20 19 22 21 24 23 4 30 26 32
ROOT
ATOM      1  C   UNL     1       3.581   5.584  -7.678  1.00  0.00    +0.282 C 
ATOM      2  C   UNL     1       2.195   5.195  -7.129  1.00  0.00    +0.202 C 
ATOM      3  C   UNL     1       1.533   4.262  -8.128  1.00  0.00    +0.179 C 
ATOM      4  C   UNL     1       2.342   2.965  -8.220  1.00  0.00    +0.177 C 
ATOM      5  C   UNL     1       3.868   3.197  -8.112  1.00  0.00    +0.180 C 
ATOM      6  O   UNL     1       4.239   4.555  -8.415  1.00  0.00    -0.341 OA
ENDROOT
BRANCH   1   7
ATOM      7  O   UNL     1       4.361   6.081  -6.587  1.00  0.00    -0.341 OA
BRANCH   7   8
ATOM      8  C   UNL     1       4.614   7.479  -6.677  1.00  0.00    +0.184 C 
ATOM      9  C   UNL     1       5.842   9.408  -6.159  1.00  0.00    +0.195 C 
ATOM     10  C   UNL     1       6.026   7.895  -6.294  1.00  0.00    +0.179 C 
ATOM     11  O   UNL     1       4.487   9.600  -5.676  1.00  0.00    -0.370 OA
ATOM     12  O   UNL     1       6.422   7.258  -5.067  1.00  0.00    -0.342 OA
ATOM     13  C   UNL     1       3.880   8.284  -5.610  1.00  0.00    +0.184 C 
ATOM     14  C   UNL     1       5.622   7.539  -3.923  1.00  0.00    +0.279 C 
ATOM     15  C   UNL     1       4.112   7.663  -4.226  1.00  0.00    +0.202 C 
BRANCH  14  16
ATOM     16  O   UNL     1       6.104   8.731  -3.309  1.00  0.00    -0.366 OA
ATOM     17  H   UNL     1       5.324   9.311  -3.254  1.00  0.00    +0.213 HD
ENDBRANCH  14  16
BRANCH  15  18
ATOM     18  O   UNL     1       3.451   8.437  -3.216  1.00  0.00    -0.385 OA
ATOM     19  H   UNL     1       2.810   7.810  -2.819  1.00  0.00    +0.211 HD
ENDBRANCH  15  18
ENDBRANCH   7   8
ENDBRANCH   1   7
BRANCH   2  20
ATOM     20  O   UNL     1       1.361   6.352  -6.940  1.00  0.00    -0.385 OA
ATOM     21  H   UNL     1       1.530   6.661  -6.028  1.00  0.00    +0.211 HD
ENDBRANCH   2  20
BRANCH   3  22
ATOM     22  O   UNL     1       0.191   3.955  -7.715  1.00  0.00    -0.387 OA
ATOM     23  H   UNL     1      -0.140   4.781  -7.306  1.00  0.00    +0.211 HD
ENDBRANCH   3  22
BRANCH   5  24
ATOM     24  C   UNL     1       4.511   2.705  -6.802  1.00  0.00    +0.220 C 
BRANCH  24  25
ATOM     25  O   UNL     1       4.777   1.310  -6.925  1.00  0.00    -0.245 OA
BRANCH  25  26
ATOM     26  S   UNL     1       4.754   0.413  -5.572  1.00  0.00    +0.397 S 
ATOM     27  O   UNL     1       3.389   0.172  -5.162  1.00  0.00    -0.169 OA
ATOM     28  O   UNL     1       5.750   0.936  -4.664  1.00  0.00    -0.169 OA
BRANCH  26  29
ATOM     29  O   UNL     1       5.364  -0.985  -6.088  1.00  0.00    -0.264 OA
ATOM     30  H   UNL     1       5.460  -0.913  -7.059  1.00  0.00    +0.236 HD
ENDBRANCH  26  29
ENDBRANCH  25  26
ENDBRANCH  24  25
ENDBRANCH   5  24
BRANCH   4  31
ATOM     31  O   UNL     1       1.878   2.051  -7.220  1.00  0.00    -0.387 OA
ATOM     32  H   UNL     1       2.386   2.286  -6.411  1.00  0.00    +0.211 HD
ENDBRANCH   4  31
TORSDOF 11
ENDMDL
MODEL 2
REMARK VINA RESULT:    -7.541      1.357      2.026
REMARK INTER + INTRA:         -12.260
REMARK INTER:                 -11.033
REMARK INTRA:                  -1.227
REMARK UNBOUND:                -1.192
REMARK SMILES O=S(=O)(O)OC[C@@H]1O[C@H](O[C@H]2[C@@H]3OC[C@H]2O[C@@H](O)[C@H]3O)[C@@H](O)[C@H](O)[C@@H]1O
REMARK SMILES IDX 9 1 21 2 23 3 25 4 7 5 8 6 10 7 11 8 14 9 15 10 13 11 16 12
REMARK SMILES IDX 12 13 17 14 19 15 18 16 20 18 22 20 24 22 6 24 5 25 2 26
REMARK SMILES IDX 1 27 3 28 4 29 26 31
REMARK H PARENT 18 17 20 19 22 21 24 23 4 30 26 32
ROOT
ATOM      1  C   UNL     1       3.512   5.916  -7.427  1.00  0.00    +0.282 C 
ATOM      2  C   UNL     1       1.987   5.792  -7.613  1.00  0.00    +0.202 C 
ATOM      3  C   UNL     1       1.726   5.117  -8.949  1.00  0.00    +0.179 C 
ATOM      4  C   UNL     1       2.276   3.689  -8.910  1.00  0.00    +0.177 C 
ATOM      5  C   UNL     1       3.595   3.572  -8.110  1.00  0.00    +0.180 C 
ATOM      6  O   UNL     1       4.268   4.838  -7.975  1.00  0.00    -0.341 OA
ENDROOT
BRANCH   1   7
ATOM      7  O   UNL     1       3.767   6.132  -6.036  1.00  0.00    -0.341 OA
BRANCH   7   8
ATOM      8  C   UNL     1       4.994   6.812  -5.795  1.00  0.00    +0.184 C 
ATOM      9  C   UNL     1       6.468   8.025  -4.434  1.00  0.00    +0.195 C 
ATOM     10  C   UNL     1       5.343   6.994  -4.326  1.00  0.00    +0.179 C 
ATOM     11  O   UNL     1       6.138   8.852  -5.579  1.00  0.00    -0.370 OA
ATOM     12  O   UNL     1       4.201   7.472  -3.594  1.00  0.00    -0.342 OA
ATOM     13  C   UNL     1       4.935   8.290  -6.163  1.00  0.00    +0.184 C 
ATOM     14  C   UNL     1       3.662   8.721  -4.012  1.00  0.00    +0.279 C 
ATOM     15  C   UNL     1       3.691   8.941  -5.541  1.00  0.00    +0.202 C 
BRANCH  14  16
ATOM     16  O   UNL     1       4.364   9.768  -3.347  1.00  0.00    -0.366 OA
ATOM     17  H   UNL     1       3.744  10.520  -3.352  1.00  0.00    +0.213 HD
ENDBRANCH  14  16
BRANCH  15  18
ATOM     18  O   UNL     1       3.651  10.339  -5.857  1.00  0.00    -0.385 OA
ATOM     19  H   UNL     1       4.475  10.694  -5.461  1.00  0.00    +0.211 HD
ENDBRANCH  15  18
ENDBRANCH   7   8
ENDBRANCH   1   7
BRANCH   2  20
ATOM     20  O   UNL     1       1.350   7.080  -7.602  1.00  0.00    -0.385 OA
ATOM     21  H   UNL     1       1.132   7.283  -8.533  1.00  0.00    +0.211 HD
ENDBRANCH   2  20
BRANCH   3  22
ATOM     22  O   UNL     1       0.316   5.075  -9.222  1.00  0.00    -0.387 OA
ATOM     23  H   UNL     1       0.246   4.674 -10.114  1.00  0.00    +0.211 HD
ENDBRANCH   3  22
BRANCH   5  24
ATOM     24  C   UNL     1       3.478   2.838  -6.762  1.00  0.00    +0.220 C 
BRANCH  24  25
ATOM     25  O   UNL     1       3.516   1.433  -7.007  1.00  0.00    -0.245 OA
BRANCH  25  26
ATOM     26  S   UNL     1       2.653   0.471  -6.025  1.00  0.00    +0.397 S 
ATOM     27  O   UNL     1       3.475  -0.622  -5.558  1.00  0.00    -0.169 OA
ATOM     28  O   UNL     1       1.355   0.256  -6.625  1.00  0.00    -0.169 OA
BRANCH  26  29
ATOM     29  O   UNL     1       2.369   1.440  -4.772  1.00  0.00    -0.264 OA
ATOM     30  H   UNL     1       3.037   1.225  -4.089  1.00  0.00    +0.236 HD
ENDBRANCH  26  29
ENDBRANCH  25  26
ENDBRANCH  24  25
ENDBRANCH   5  24
BRANCH   4  31
ATOM     31  O   UNL     1       1.269   2.813  -8.391  1.00  0.00    -0.387 OA
ATOM     32  H   UNL     1       0.467   3.007  -8.925  1.00  0.00    +0.211 HD
ENDBRANCH   4  31
TORSDOF 11
ENDMDL
MODEL 3
REMARK VINA RESULT:    -6.975      7.561     11.720
REMARK INTER + INTRA:         -11.430
REMARK INTER:                 -10.292
REMARK INTRA:                  -1.137
REMARK UNBOUND:                -1.192
REMARK SMILES O=S(=O)(O)OC[C@@H]1O[C@H](O[C@H]2[C@@H]3OC[C@H]2O[C@@H](O)[C@H]3O)[C@@H](O)[C@H](O)[C@@H]1O
REMARK SMILES IDX 9 1 21 2 23 3 25 4 7 5 8 6 10 7 11 8 14 9 15 10 13 11 16 12
REMARK SMILES IDX 12 13 17 14 19 15 18 16 20 18 22 20 24 22 6 24 5 25 2 26
REMARK SMILES IDX 1 27 3 28 4 29 26 31
REMARK H PARENT 18 17 20 19 22 21 24 23 4 30 26 32
ROOT
ATOM      1  C   UNL     1       1.013  -5.048  -5.131  1.00  0.00    +0.282 C 
ATOM      2  C   UNL     1       2.264  -4.850  -4.254  1.00  0.00    +0.202 C 
ATOM      3  C   UNL     1       3.483  -4.854  -5.160  1.00  0.00    +0.179 C 
ATOM      4  C   UNL     1       3.419  -3.647  -6.101  1.00  0.00    +0.177 C 
ATOM      5  C   UNL     1       1.979  -3.323  -6.567  1.00  0.00    +0.180 C 
ATOM      6  O   UNL     1       1.090  -4.447  -6.423  1.00  0.00    -0.341 OA
ENDROOT
BRANCH   1   7
ATOM      7  O   UNL     1      -0.123  -4.616  -4.377  1.00  0.00    -0.341 OA
BRANCH   7   8
ATOM      8  C   UNL     1      -1.211  -5.533  -4.437  1.00  0.00    +0.184 C 
ATOM      9  C   UNL     1      -3.466  -6.107  -4.152  1.00  0.00    +0.195 C 
ATOM     10  C   UNL     1      -2.588  -4.888  -4.438  1.00  0.00    +0.179 C 
ATOM     11  O   UNL     1      -2.676  -6.972  -3.295  1.00  0.00    -0.370 OA
ATOM     12  O   UNL     1      -2.669  -3.876  -3.419  1.00  0.00    -0.342 OA
ATOM     13  C   UNL     1      -1.377  -6.339  -3.154  1.00  0.00    +0.184 C 
ATOM     14  C   UNL     1      -2.456  -4.310  -2.081  1.00  0.00    +0.279 C 
ATOM     15  C   UNL     1      -1.374  -5.403  -1.937  1.00  0.00    +0.202 C 
BRANCH  14  16
ATOM     16  O   UNL     1      -3.696  -4.765  -1.545  1.00  0.00    -0.366 OA
ATOM     17  H   UNL     1      -3.758  -4.337  -0.673  1.00  0.00    +0.213 HD
ENDBRANCH  14  16
BRANCH  15  18
ATOM     18  O   UNL     1      -1.565  -6.155  -0.731  1.00  0.00    -0.385 OA
ATOM     19  H   UNL     1      -0.708  -6.614  -0.600  1.00  0.00    +0.211 HD
ENDBRANCH  15  18
ENDBRANCH   7   8
ENDBRANCH   1   7
BRANCH   2  20
ATOM     20  O   UNL     1       2.395  -5.900  -3.281  1.00  0.00    -0.385 OA
ATOM     21  H   UNL     1       2.178  -6.731  -3.749  1.00  0.00    +0.211 HD
ENDBRANCH   2  20
BRANCH   3  22
ATOM     22  O   UNL     1       4.688  -4.781  -4.380  1.00  0.00    -0.387 OA
ATOM     23  H   UNL     1       5.117  -5.655  -4.499  1.00  0.00    +0.211 HD
ENDBRANCH   3  22
BRANCH   5  24
ATOM     24  C   UNL     1       1.376  -2.036  -5.976  1.00  0.00    +0.220 C 
BRANCH  24  25
ATOM     25  O   UNL     1       1.270  -1.067  -7.017  1.00  0.00    -0.245 OA
BRANCH  25  26
ATOM     26  S   UNL     1       2.122   0.306  -6.862  1.00  0.00    +0.397 S 
ATOM     27  O   UNL     1       1.538   1.345  -7.680  1.00  0.00    -0.169 OA
ATOM     28  O   UNL     1       3.528  -0.023  -6.924  1.00  0.00    -0.169 OA
BRANCH  26  29
ATOM     29  O   UNL     1       1.859   0.691  -5.322  1.00  0.00    -0.264 OA
ATOM     30  H   UNL     1       2.238   1.582  -5.182  1.00  0.00    +0.236 HD
ENDBRANCH  26  29
ENDBRANCH  25  26
ENDBRANCH  24  25
ENDBRANCH   5  24
BRANCH   4  31
ATOM     31  O   UNL     1       4.028  -2.520  -5.461  1.00  0.00    -0.387 OA
ATOM     32  H   UNL     1       4.079  -2.768  -4.511  1.00  0.00    +0.211 HD
ENDBRANCH   4  31
TORSDOF 11
ENDMDL
MODEL 4
REMARK VINA RESULT:    -6.711      9.774     12.893
REMARK INTER + INTRA:         -11.042
REMARK INTER:                  -9.268
REMARK INTRA:                  -1.774
REMARK UNBOUND:                -1.192
REMARK SMILES O=S(=O)(O)OC[C@@H]1O[C@H](O[C@H]2[C@@H]3OC[C@H]2O[C@@H](O)[C@H]3O)[C@@H](O)[C@H](O)[C@@H]1O
REMARK SMILES IDX 9 1 21 2 23 3 25 4 7 5 8 6 10 7 11 8 14 9 15 10 13 11 16 12
REMARK SMILES IDX 12 13 17 14 19 15 18 16 20 18 22 20 24 22 6 24 5 25 2 26
REMARK SMILES IDX 1 27 3 28 4 29 26 31
REMARK H PARENT 18 17 20 19 22 21 24 23 4 30 26 32
ROOT
ATOM      1  C   UNL     1       0.822  -4.711  -4.046  1.00  0.00    +0.282 C 
ATOM      2  C   UNL     1       1.094  -4.388  -5.528  1.00  0.00    +0.202 C 
ATOM      3  C   UNL     1       2.506  -3.840  -5.643  1.00  0.00    +0.179 C 
ATOM      4  C   UNL     1       3.505  -4.931  -5.247  1.00  0.00    +0.177 C 
ATOM      5  C   UNL     1       2.999  -5.819  -4.085  1.00  0.00    +0.180 C 
ATOM      6  O   UNL     1       1.957  -5.182  -3.322  1.00  0.00    -0.341 OA
ENDROOT
BRANCH   1   7
ATOM      7  O   UNL     1      -0.292  -5.606  -3.990  1.00  0.00    -0.341 OA
BRANCH   7   8
ATOM      8  C   UNL     1      -1.368  -5.107  -3.202  1.00  0.00    +0.184 C 
ATOM      9  C   UNL     1      -3.395  -5.357  -2.052  1.00  0.00    +0.195 C 
ATOM     10  C   UNL     1      -2.172  -6.173  -2.475  1.00  0.00    +0.179 C 
ATOM     11  O   UNL     1      -3.597  -4.374  -3.101  1.00  0.00    -0.370 OA
ATOM     12  O   UNL     1      -2.491  -7.257  -3.366  1.00  0.00    -0.342 OA
ATOM     13  C   UNL     1      -2.508  -4.545  -4.044  1.00  0.00    +0.184 C 
ATOM     14  C   UNL     1      -3.260  -6.921  -4.517  1.00  0.00    +0.279 C 
ATOM     15  C   UNL     1      -2.905  -5.550  -5.134  1.00  0.00    +0.202 C 
BRANCH  14  16
ATOM     16  O   UNL     1      -4.642  -6.968  -4.173  1.00  0.00    -0.366 OA
ATOM     17  H   UNL     1      -5.012  -6.144  -4.537  1.00  0.00    +0.213 HD
ENDBRANCH  14  16
BRANCH  15  18
ATOM     18  O   UNL     1      -4.000  -5.040  -5.906  1.00  0.00    -0.385 OA
ATOM     19  H   UNL     1      -3.784  -5.303  -6.826  1.00  0.00    +0.211 HD
ENDBRANCH  15  18
ENDBRANCH   7   8
ENDBRANCH   1   7
BRANCH   2  20
ATOM     20  O   UNL     1       0.166  -3.412  -6.032  1.00  0.00    -0.385 OA
ATOM     21  H   UNL     1       0.632  -2.553  -5.998  1.00  0.00    +0.211 HD
ENDBRANCH   2  20
BRANCH   3  22
ATOM     22  O   UNL     1       2.773  -3.420  -6.991  1.00  0.00    -0.387 OA
ATOM     23  H   UNL     1       3.210  -4.191  -7.412  1.00  0.00    +0.211 HD
ENDBRANCH   3  22
BRANCH   5  24
ATOM     24  C   UNL     1       2.622  -7.258  -4.481  1.00  0.00    +0.220 C 
BRANCH  24  25
ATOM     25  O   UNL     1       2.320  -7.989  -3.295  1.00  0.00    -0.245 OA
BRANCH  25  26
ATOM     26  S   UNL     1       0.990  -8.921  -3.298  1.00  0.00    +0.397 S 
ATOM     27  O   UNL     1       0.266  -8.752  -2.058  1.00  0.00    -0.169 OA
ATOM     28  O   UNL     1       1.351 -10.224  -3.808  1.00  0.00    -0.169 OA
BRANCH  26  29
ATOM     29  O   UNL     1       0.115  -8.249  -4.470  1.00  0.00    -0.264 OA
ATOM     30  H   UNL     1      -0.752  -8.016  -4.081  1.00  0.00    +0.236 HD
ENDBRANCH  26  29
ENDBRANCH  25  26
ENDBRANCH  24  25
ENDBRANCH   5  24
BRANCH   4  31
ATOM     31  O   UNL     1       3.828  -5.713  -6.402  1.00  0.00    -0.387 OA
ATOM     32  H   UNL     1       3.831  -6.643  -6.082  1.00  0.00    +0.211 HD
ENDBRANCH   4  31
TORSDOF 11
ENDMDL
MODEL 5
REMARK VINA RESULT:    -6.705     12.291     15.573
REMARK INTER + INTRA:         -11.033
REMARK INTER:                  -9.723
REMARK INTRA:                  -1.309
REMARK UNBOUND:                -1.192
REMARK SMILES O=S(=O)(O)OC[C@@H]1O[C@H](O[C@H]2[C@@H]3OC[C@H]2O[C@@H](O)[C@H]3O)[C@@H](O)[C@H](O)[C@@H]1O
REMARK SMILES IDX 9 1 21 2 23 3 25 4 7 5 8 6 10 7 11 8 14 9 15 10 13 11 16 12
REMARK SMILES IDX 12 13 17 14 19 15 18 16 20 18 22 20 24 22 6 24 5 25 2 26
REMARK SMILES IDX 1 27 3 28 4 29 26 31
REMARK H PARENT 18 17 20 19 22 21 24 23 4 30 26 32
ROOT
ATOM      1  C   UNL     1      -1.649  -6.103  -3.106  1.00  0.00    +0.282 C 
ATOM      2  C   UNL     1      -2.697  -5.021  -3.433  1.00  0.00    +0.202 C 
ATOM      3  C   UNL     1      -2.480  -4.569  -4.867  1.00  0.00    +0.179 C 
ATOM      4  C   UNL     1      -2.759  -5.740  -5.814  1.00  0.00    +0.177 C 
ATOM      5  C   UNL     1      -2.294  -7.101  -5.241  1.00  0.00    +0.180 C 
ATOM      6  O   UNL     1      -1.309  -6.951  -4.202  1.00  0.00    -0.341 OA
ENDROOT
BRANCH   1   7
ATOM      7  O   UNL     1      -2.108  -6.824  -1.959  1.00  0.00    -0.341 OA
BRANCH   7   8
ATOM      8  C   UNL     1      -1.161  -7.777  -1.487  1.00  0.00    +0.184 C 
ATOM      9  C   UNL     1      -0.512  -9.955  -0.914  1.00  0.00    +0.195 C 
ATOM     10  C   UNL     1      -1.483  -9.221  -1.841  1.00  0.00    +0.179 C 
ATOM     11  O   UNL     1      -0.398  -9.131   0.274  1.00  0.00    -0.370 OA
ATOM     12  O   UNL     1      -2.864  -9.511  -1.563  1.00  0.00    -0.342 OA
ATOM     13  C   UNL     1      -1.189  -7.939   0.028  1.00  0.00    +0.184 C 
ATOM     14  C   UNL     1      -3.283  -9.349  -0.212  1.00  0.00    +0.279 C 
ATOM     15  C   UNL     1      -2.630  -8.151   0.512  1.00  0.00    +0.202 C 
BRANCH  14  16
ATOM     16  O   UNL     1      -3.022 -10.559   0.495  1.00  0.00    -0.366 OA
ATOM     17  H   UNL     1      -2.283 -10.970   0.012  1.00  0.00    +0.213 HD
ENDBRANCH  14  16
BRANCH  15  18
ATOM     18  O   UNL     1      -2.656  -8.338   1.933  1.00  0.00    -0.385 OA
ATOM     19  H   UNL     1      -2.044  -7.651   2.273  1.00  0.00    +0.211 HD
ENDBRANCH  15  18
ENDBRANCH   7   8
ENDBRANCH   1   7
BRANCH   2  20
ATOM     20  O   UNL     1      -2.572  -3.887  -2.557  1.00  0.00    -0.385 OA
ATOM     21  H   UNL     1      -1.613  -3.719  -2.468  1.00  0.00    +0.211 HD
ENDBRANCH   2  20
BRANCH   3  22
ATOM     22  O   UNL     1      -3.363  -3.481  -5.189  1.00  0.00    -0.387 OA
ATOM     23  H   UNL     1      -3.478  -2.995  -4.345  1.00  0.00    +0.211 HD
ENDBRANCH   3  22
BRANCH   5  24
ATOM     24  C   UNL     1      -3.428  -8.055  -4.823  1.00  0.00    +0.220 C 
BRANCH  24  25
ATOM     25  O   UNL     1      -3.754  -8.885  -5.935  1.00  0.00    -0.245 OA
BRANCH  25  26
ATOM     26  S   UNL     1      -5.323  -9.192  -6.218  1.00  0.00    +0.397 S 
ATOM     27  O   UNL     1      -5.738 -10.362  -5.478  1.00  0.00    -0.169 OA
ATOM     28  O   UNL     1      -5.565  -9.051  -7.636  1.00  0.00    -0.169 OA
BRANCH  26  29
ATOM     29  O   UNL     1      -6.038  -7.913  -5.551  1.00  0.00    -0.264 OA
ATOM     30  H   UNL     1      -6.959  -8.174  -5.349  1.00  0.00    +0.236 HD
ENDBRANCH  26  29
ENDBRANCH  25  26
ENDBRANCH  24  25
ENDBRANCH   5  24
BRANCH   4  31
ATOM     31  O   UNL     1      -4.153  -5.758  -6.140  1.00  0.00    -0.387 OA
ATOM     32  H   UNL     1      -4.405  -4.811  -6.216  1.00  0.00    +0.211 HD
ENDBRANCH   4  31
TORSDOF 11
ENDMDL
MODEL 6
REMARK VINA RESULT:    -6.617      1.483      2.281
REMARK INTER + INTRA:         -10.904
REMARK INTER:                 -10.051
REMARK INTRA:                  -0.852
REMARK UNBOUND:                -1.192
REMARK SMILES O=S(=O)(O)OC[C@@H]1O[C@H](O[C@H]2[C@@H]3OC[C@H]2O[C@@H](O)[C@H]3O)[C@@H](O)[C@H](O)[C@@H]1O
REMARK SMILES IDX 9 1 21 2 23 3 25 4 7 5 8 6 10 7 11 8 14 9 15 10 13 11 16 12
REMARK SMILES IDX 12 13 17 14 19 15 18 16 20 18 22 20 24 22 6 24 5 25 2 26
REMARK SMILES IDX 1 27 3 28 4 29 26 31
REMARK H PARENT 18 17 20 19 22 21 24 23 4 30 26 32
ROOT
ATOM      1  C   UNL     1       3.519   4.470  -7.484  1.00  0.00    +0.282 C 
ATOM      2  C   UNL     1       2.046   4.046  -7.327  1.00  0.00    +0.202 C 
ATOM      3  C   UNL     1       1.843   2.747  -8.088  1.00  0.00    +0.179 C 
ATOM      4  C   UNL     1       2.683   1.644  -7.438  1.00  0.00    +0.177 C 
ATOM      5  C   UNL     1       4.048   2.153  -6.918  1.00  0.00    +0.180 C 
ATOM      6  O   UNL     1       4.447   3.388  -7.542  1.00  0.00    -0.341 OA
ENDROOT
BRANCH   1   7
ATOM      7  O   UNL     1       3.817   5.410  -6.448  1.00  0.00    -0.341 OA
BRANCH   7   8
ATOM      8  C   UNL     1       4.962   6.207  -6.733  1.00  0.00    +0.184 C 
ATOM      9  C   UNL     1       6.272   8.134  -6.474  1.00  0.00    +0.195 C 
ATOM     10  C   UNL     1       5.257   7.288  -5.704  1.00  0.00    +0.179 C 
ATOM     11  O   UNL     1       5.884   8.044  -7.870  1.00  0.00    -0.370 OA
ATOM     12  O   UNL     1       4.055   8.004  -5.369  1.00  0.00    -0.342 OA
ATOM     13  C   UNL     1       4.758   7.130  -7.928  1.00  0.00    +0.184 C 
ATOM     14  C   UNL     1       3.399   8.672  -6.442  1.00  0.00    +0.279 C 
ATOM     15  C   UNL     1       3.441   7.904  -7.782  1.00  0.00    +0.202 C 
BRANCH  14  16
ATOM     16  O   UNL     1       3.975   9.967  -6.594  1.00  0.00    -0.366 OA
ATOM     17  H   UNL     1       3.680  10.263  -7.473  1.00  0.00    +0.213 HD
ENDBRANCH  14  16
BRANCH  15  18
ATOM     18  O   UNL     1       3.263   8.799  -8.888  1.00  0.00    -0.385 OA
ATOM     19  H   UNL     1       2.403   9.234  -8.704  1.00  0.00    +0.211 HD
ENDBRANCH  15  18
ENDBRANCH   7   8
ENDBRANCH   1   7
BRANCH   2  20
ATOM     20  O   UNL     1       1.153   5.045  -7.850  1.00  0.00    -0.385 OA
ATOM     21  H   UNL     1       1.652   5.514  -8.548  1.00  0.00    +0.211 HD
ENDBRANCH   2  20
BRANCH   3  22
ATOM     22  O   UNL     1       0.458   2.363  -8.064  1.00  0.00    -0.387 OA
ATOM     23  H   UNL     1       0.147   2.492  -8.985  1.00  0.00    +0.211 HD
ENDBRANCH   3  22
BRANCH   5  24
ATOM     24  C   UNL     1       4.180   2.216  -5.385  1.00  0.00    +0.220 C 
BRANCH  24  25
ATOM     25  O   UNL     1       5.387   1.559  -5.007  1.00  0.00    -0.245 OA
BRANCH  25  26
ATOM     26  S   UNL     1       5.422  -0.063  -5.082  1.00  0.00    +0.397 S 
ATOM     27  O   UNL     1       4.075  -0.582  -5.154  1.00  0.00    -0.169 OA
ATOM     28  O   UNL     1       6.381  -0.541  -4.112  1.00  0.00    -0.169 OA
BRANCH  26  29
ATOM     29  O   UNL     1       6.121  -0.316  -6.510  1.00  0.00    -0.264 OA
ATOM     30  H   UNL     1       6.310   0.564  -6.895  1.00  0.00    +0.236 HD
ENDBRANCH  26  29
ENDBRANCH  25  26
ENDBRANCH  24  25
ENDBRANCH   5  24
BRANCH   4  31
ATOM     31  O   UNL     1       1.921   1.028  -6.393  1.00  0.00    -0.387 OA
ATOM     32  H   UNL     1       2.433   1.203  -5.572  1.00  0.00    +0.211 HD
ENDBRANCH   4  31
TORSDOF 11
ENDMDL
MODEL 7
REMARK VINA RESULT:    -6.613      2.438      4.291
REMARK INTER + INTRA:         -10.897
REMARK INTER:                  -9.863
REMARK INTRA:                  -1.035
REMARK UNBOUND:                -1.192
REMARK SMILES O=S(=O)(O)OC[C@@H]1O[C@H](O[C@H]2[C@@H]3OC[C@H]2O[C@@H](O)[C@H]3O)[C@@H](O)[C@H](O)[C@@H]1O
REMARK SMILES IDX 9 1 21 2 23 3 25 4 7 5 8 6 10 7 11 8 14 9 15 10 13 11 16 12
REMARK SMILES IDX 12 13 17 14 19 15 18 16 20 18 22 20 24 22 6 24 5 25 2 26
REMARK SMILES IDX 1 27 3 28 4 29 26 31
REMARK H PARENT 18 17 20 19 22 21 24 23 4 30 26 32
ROOT
ATOM      1  C   UNL     1       3.458   5.754  -5.521  1.00  0.00    +0.282 C 
ATOM      2  C   UNL     1       4.407   4.605  -5.129  1.00  0.00    +0.202 C 
ATOM      3  C   UNL     1       3.675   3.291  -5.345  1.00  0.00    +0.179 C 
ATOM      4  C   UNL     1       3.378   3.117  -6.837  1.00  0.00    +0.177 C 
ATOM      5  C   UNL     1       3.019   4.448  -7.539  1.00  0.00    +0.180 C 
ATOM      6  O   UNL     1       2.584   5.459  -6.609  1.00  0.00    -0.341 OA
ENDROOT
BRANCH   1   7
ATOM      7  O   UNL     1       4.253   6.923  -5.740  1.00  0.00    -0.341 OA
BRANCH   7   8
ATOM      8  C   UNL     1       3.807   8.046  -4.987  1.00  0.00    +0.184 C 
ATOM      9  C   UNL     1       3.779  10.336  -4.486  1.00  0.00    +0.195 C 
ATOM     10  C   UNL     1       4.020   9.391  -5.665  1.00  0.00    +0.179 C 
ATOM     11  O   UNL     1       4.250   9.630  -3.310  1.00  0.00    -0.370 OA
ATOM     12  O   UNL     1       5.351   9.478  -6.202  1.00  0.00    -0.342 OA
ATOM     13  C   UNL     1       4.666   8.313  -3.756  1.00  0.00    +0.184 C 
ATOM     14  C   UNL     1       6.418   9.352  -5.267  1.00  0.00    +0.279 C 
ATOM     15  C   UNL     1       6.152   8.329  -4.141  1.00  0.00    +0.202 C 
BRANCH  14  16
ATOM     16  O   UNL     1       6.696  10.637  -4.715  1.00  0.00    -0.366 OA
ATOM     17  H   UNL     1       6.385  11.265  -5.391  1.00  0.00    +0.213 HD
ENDBRANCH  14  16
BRANCH  15  18
ATOM     18  O   UNL     1       6.960   8.614  -2.992  1.00  0.00    -0.385 OA
ATOM     19  H   UNL     1       7.159   9.572  -3.074  1.00  0.00    +0.211 HD
ENDBRANCH  15  18
ENDBRANCH   7   8
ENDBRANCH   1   7
BRANCH   2  20
ATOM     20  O   UNL     1       4.808   4.702  -3.752  1.00  0.00    -0.385 OA
ATOM     21  H   UNL     1       5.750   4.962  -3.762  1.00  0.00    +0.211 HD
ENDBRANCH   2  20
BRANCH   3  22
ATOM     22  O   UNL     1       4.479   2.189  -4.890  1.00  0.00    -0.387 OA
ATOM     23  H   UNL     1       5.319   2.269  -5.390  1.00  0.00    +0.211 HD
ENDBRANCH   3  22
BRANCH   5  24
ATOM     24  C   UNL     1       4.088   4.983  -8.510  1.00  0.00    +0.220 C 
BRANCH  24  25
ATOM     25  O   UNL     1       3.767   4.537  -9.826  1.00  0.00    -0.245 OA
BRANCH  25  26
ATOM     26  S   UNL     1       2.984   5.569 -10.804  1.00  0.00    +0.397 S 
ATOM     27  O   UNL     1       1.609   5.704 -10.380  1.00  0.00    -0.169 OA
ATOM     28  O   UNL     1       3.342   5.259 -12.170  1.00  0.00    -0.169 OA
BRANCH  26  29
ATOM     29  O   UNL     1       3.731   6.960 -10.490  1.00  0.00    -0.264 OA
ATOM     30  H   UNL     1       4.678   6.751 -10.356  1.00  0.00    +0.236 HD
ENDBRANCH  26  29
ENDBRANCH  25  26
ENDBRANCH  24  25
ENDBRANCH   5  24
BRANCH   4  31
ATOM     31  O   UNL     1       4.494   2.477  -7.466  1.00  0.00    -0.387 OA
ATOM     32  H   UNL     1       4.164   2.213  -8.354  1.00  0.00    +0.211 HD
ENDBRANCH   4  31
TORSDOF 11
ENDMDL
MODEL 8
REMARK VINA RESULT:    -6.572      2.878      4.151
REMARK INTER + INTRA:         -10.838
REMARK INTER:                  -9.708
REMARK INTRA:                  -1.131
REMARK UNBOUND:                -1.192
REMARK SMILES O=S(=O)(O)OC[C@@H]1O[C@H](O[C@H]2[C@@H]3OC[C@H]2O[C@@H](O)[C@H]3O)[C@@H](O)[C@H](O)[C@@H]1O
REMARK SMILES IDX 9 1 21 2 23 3 25 4 7 5 8 6 10 7 11 8 14 9 15 10 13 11 16 12
REMARK SMILES IDX 12 13 17 14 19 15 18 16 20 18 22 20 24 22 6 24 5 25 2 26
REMARK SMILES IDX 1 27 3 28 4 29 26 31
REMARK H PARENT 18 17 20 19 22 21 24 23 4 30 26 32
ROOT
ATOM      1  C   UNL     1       2.408   6.472  -6.678  1.00  0.00    +0.282 C 
ATOM      2  C   UNL     1       2.430   4.932  -6.631  1.00  0.00    +0.202 C 
ATOM      3  C   UNL     1       1.370   4.413  -7.586  1.00  0.00    +0.179 C 
ATOM      4  C   UNL     1       1.742   4.808  -9.018  1.00  0.00    +0.177 C 
ATOM      5  C   UNL     1       2.394   6.208  -9.107  1.00  0.00    +0.180 C 
ATOM      6  O   UNL     1       2.100   7.024  -7.957  1.00  0.00    -0.341 OA
ENDROOT
BRANCH   1   7
ATOM      7  O   UNL     1       3.648   6.945  -6.145  1.00  0.00    -0.341 OA
BRANCH   7   8
ATOM      8  C   UNL     1       3.871   8.328  -6.400  1.00  0.00    +0.184 C 
ATOM      9  C   UNL     1       5.002  10.351  -6.051  1.00  0.00    +0.195 C 
ATOM     10  C   UNL     1       5.236   8.842  -5.968  1.00  0.00    +0.179 C 
ATOM     11  O   UNL     1       3.608  10.555  -5.703  1.00  0.00    -0.370 OA
ATOM     12  O   UNL     1       5.548   8.385  -4.640  1.00  0.00    -0.342 OA
ATOM     13  C   UNL     1       3.032   9.237  -5.510  1.00  0.00    +0.184 C 
ATOM     14  C   UNL     1       4.650   8.783  -3.610  1.00  0.00    +0.279 C 
ATOM     15  C   UNL     1       3.167   8.811  -4.041  1.00  0.00    +0.202 C 
BRANCH  14  16
ATOM     16  O   UNL     1       5.050  10.062  -3.124  1.00  0.00    -0.366 OA
ATOM     17  H   UNL     1       5.866   9.889  -2.622  1.00  0.00    +0.213 HD
ENDBRANCH  14  16
BRANCH  15  18
ATOM     18  O   UNL     1       2.407   9.685  -3.198  1.00  0.00    -0.385 OA
ATOM     19  H   UNL     1       1.735  10.071  -3.800  1.00  0.00    +0.211 HD
ENDBRANCH  15  18
ENDBRANCH   7   8
ENDBRANCH   1   7
BRANCH   2  20
ATOM     20  O   UNL     1       2.154   4.443  -5.307  1.00  0.00    -0.385 OA
ATOM     21  H   UNL     1       1.918   5.227  -4.773  1.00  0.00    +0.211 HD
ENDBRANCH   2  20
BRANCH   3  22
ATOM     22  O   UNL     1       1.274   2.981  -7.500  1.00  0.00    -0.387 OA
ATOM     23  H   UNL     1       2.051   2.648  -7.996  1.00  0.00    +0.211 HD
ENDBRANCH   3  22
BRANCH   5  24
ATOM     24  C   UNL     1       3.897   6.208  -9.440  1.00  0.00    +0.220 C 
BRANCH  24  25
ATOM     25  O   UNL     1       4.073   6.767 -10.740  1.00  0.00    -0.245 OA
BRANCH  25  26
ATOM     26  S   UNL     1       4.553   5.776 -11.932  1.00  0.00    +0.397 S 
ATOM     27  O   UNL     1       5.736   6.308 -12.570  1.00  0.00    -0.169 OA
ATOM     28  O   UNL     1       3.387   5.374 -12.686  1.00  0.00    -0.169 OA
BRANCH  26  29
ATOM     29  O   UNL     1       4.988   4.458 -11.116  1.00  0.00    -0.264 OA
ATOM     30  H   UNL     1       4.167   4.055 -10.767  1.00  0.00    +0.236 HD
ENDBRANCH  26  29
ENDBRANCH  25  26
ENDBRANCH  24  25
ENDBRANCH   5  24
BRANCH   4  31
ATOM     31  O   UNL     1       2.590   3.799  -9.578  1.00  0.00    -0.387 OA
ATOM     32  H   UNL     1       2.287   2.959  -9.165  1.00  0.00    +0.211 HD
ENDBRANCH   4  31
TORSDOF 11
ENDMDL
MODEL 9
REMARK VINA RESULT:    -6.444      2.533      5.984
REMARK INTER + INTRA:         -10.650
REMARK INTER:                  -9.227
REMARK INTRA:                  -1.423
REMARK UNBOUND:                -1.192
REMARK SMILES O=S(=O)(O)OC[C@@H]1O[C@H](O[C@H]2[C@@H]3OC[C@H]2O[C@@H](O)[C@H]3O)[C@@H](O)[C@H](O)[C@@H]1O
REMARK SMILES IDX 9 1 21 2 23 3 25 4 7 5 8 6 10 7 11 8 14 9 15 10 13 11 16 12
REMARK SMILES IDX 12 13 17 14 19 15 18 16 20 18 22 20 24 22 6 24 5 25 2 26
REMARK SMILES IDX 1 27 3 28 4 29 26 31
REMARK H PARENT 18 17 20 19 22 21 24 23 4 30 26 32
ROOT
ATOM      1  C   UNL     1       3.801   8.506  -6.257  1.00  0.00    +0.282 C 
ATOM      2  C   UNL     1       5.044   9.414  -6.186  1.00  0.00    +0.202 C 
ATOM      3  C   UNL     1       5.000  10.176  -4.872  1.00  0.00    +0.179 C 
ATOM      4  C   UNL     1       5.119   9.188  -3.709  1.00  0.00    +0.177 C 
ATOM      5  C   UNL     1       4.382   7.853  -3.975  1.00  0.00    +0.180 C 
ATOM      6  O   UNL     1       3.379   7.976  -5.001  1.00  0.00    -0.341 OA
ENDROOT
BRANCH   1   7
ATOM      7  O   UNL     1       4.051   7.497  -7.238  1.00  0.00    -0.341 OA
BRANCH   7   8
ATOM      8  C   UNL     1       2.893   7.158  -7.995  1.00  0.00    +0.184 C 
ATOM      9  C   UNL     1       1.777   5.937  -9.655  1.00  0.00    +0.195 C 
ATOM     10  C   UNL     1       2.965   5.813  -8.700  1.00  0.00    +0.179 C 
ATOM     11  O   UNL     1       1.699   7.342 -10.009  1.00  0.00    -0.370 OA
ATOM     12  O   UNL     1       4.227   5.666  -9.375  1.00  0.00    -0.342 OA
ATOM     13  C   UNL     1       2.727   8.020  -9.241  1.00  0.00    +0.184 C 
ATOM     14  C   UNL     1       4.522   6.635 -10.376  1.00  0.00    +0.279 C 
ATOM     15  C   UNL     1       4.040   8.062 -10.035  1.00  0.00    +0.202 C 
BRANCH  14  16
ATOM     16  O   UNL     1       3.958   6.202 -11.612  1.00  0.00    -0.366 OA
ATOM     17  H   UNL     1       4.397   5.353 -11.797  1.00  0.00    +0.213 HD
ENDBRANCH  14  16
BRANCH  15  18
ATOM     18  O   UNL     1       3.877   8.844 -11.225  1.00  0.00    -0.385 OA
ATOM     19  H   UNL     1       4.699   8.674 -11.734  1.00  0.00    +0.211 HD
ENDBRANCH  15  18
ENDBRANCH   7   8
ENDBRANCH   1   7
BRANCH   2  20
ATOM     20  O   UNL     1       5.074  10.351  -7.275  1.00  0.00    -0.385 OA
ATOM     21  H   UNL     1       5.896  10.165  -7.770  1.00  0.00    +0.211 HD
ENDBRANCH   2  20
BRANCH   3  22
ATOM     22  O   UNL     1       6.083  11.120  -4.804  1.00  0.00    -0.387 OA
ATOM     23  H   UNL     1       5.653  11.980  -4.615  1.00  0.00    +0.211 HD
ENDBRANCH   3  22
BRANCH   5  24
ATOM     24  C   UNL     1       5.297   6.638  -4.210  1.00  0.00    +0.220 C 
BRANCH  24  25
ATOM     25  O   UNL     1       4.627   5.470  -3.742  1.00  0.00    -0.245 OA
BRANCH  25  26
ATOM     26  S   UNL     1       4.124   4.392  -4.847  1.00  0.00    +0.397 S 
ATOM     27  O   UNL     1       4.052   3.075  -4.256  1.00  0.00    -0.169 OA
ATOM     28  O   UNL     1       4.831   4.645  -6.082  1.00  0.00    -0.169 OA
BRANCH  26  29
ATOM     29  O   UNL     1       2.617   4.884  -5.130  1.00  0.00    -0.264 OA
ATOM     30  H   UNL     1       2.029   4.127  -4.934  1.00  0.00    +0.236 HD
ENDBRANCH  26  29
ENDBRANCH  25  26
ENDBRANCH  24  25
ENDBRANCH   5  24
BRANCH   4  31
ATOM     31  O   UNL     1       6.504   8.972  -3.416  1.00  0.00    -0.387 OA
ATOM     32  H   UNL     1       6.978   9.674  -3.915  1.00  0.00    +0.211 HD
ENDBRANCH   4  31
TORSDOF 11
ENDMDL
