MODEL 1
REMARK VINA RESULT:    -8.230      0.000      0.000
REMARK INTER + INTRA:         -12.935
REMARK INTER:                 -12.079
REMARK INTRA:                  -0.856
REMARK UNBOUND:                -0.856
REMARK SMILES O=S(=O)(O)OC[C@@H]1O[C@H](O[C@H]2[C@@H]3OC[C@H]2O[C@@H](O)[C@H]3O)[C@@H](O)[C@H](O)[C@@H]1O
REMARK SMILES IDX 9 1 21 2 23 3 25 4 7 5 8 6 10 7 11 8 14 9 15 10 13 11 16 12
REMARK SMILES IDX 12 13 17 14 19 15 18 16 20 18 22 20 24 22 6 24 5 25 2 26
REMARK SMILES IDX 1 27 3 28 4 29 26 31
REMARK H PARENT 18 17 20 19 22 21 24 23 4 30 26 32
ROOT
ATOM      1  C   UNL     1       8.788  -6.603  -5.742  1.00  0.00    +0.282 C 
ATOM      2  C   UNL     1       8.015  -7.484  -4.740  1.00  0.00    +0.202 C 
ATOM      3  C   UNL     1       8.335  -6.997  -3.337  1.00  0.00    +0.179 C 
ATOM      4  C   UNL     1       7.802  -5.572  -3.162  1.00  0.00    +0.177 C 
ATOM      5  C   UNL     1       7.943  -4.715  -4.442  1.00  0.00    +0.180 C 
ATOM      6  O   UNL     1       8.932  -5.240  -5.348  1.00  0.00    -0.341 OA
ENDROOT
BRANCH   1   7
ATOM      7  O   UNL     1       8.172  -6.756  -7.024  1.00  0.00    -0.341 OA
BRANCH   7   8
ATOM      8  C   UNL     1       9.030  -6.387  -8.099  1.00  0.00    +0.184 C 
ATOM      9  C   UNL     1      10.001  -6.745 -10.202  1.00  0.00    +0.195 C 
ATOM     10  C   UNL     1       8.731  -7.082  -9.418  1.00  0.00    +0.179 C 
ATOM     11  O   UNL     1      11.069  -6.695  -9.223  1.00  0.00    -0.370 OA
ATOM     12  O   UNL     1       8.547  -8.494  -9.212  1.00  0.00    -0.342 OA
ATOM     13  C   UNL     1      10.453  -6.905  -7.926  1.00  0.00    +0.184 C 
ATOM     14  C   UNL     1       9.651  -9.199  -8.654  1.00  0.00    +0.279 C 
ATOM     15  C   UNL     1      10.434  -8.402  -7.586  1.00  0.00    +0.202 C 
BRANCH  14  16
ATOM     16  O   UNL     1      10.520  -9.598  -9.711  1.00  0.00    -0.366 OA
ATOM     17  H   UNL     1      10.098  -9.253 -10.518  1.00  0.00    +0.213 HD
ENDBRANCH  14  16
BRANCH  15  18
ATOM     18  O   UNL     1      11.772  -8.900  -7.457  1.00  0.00    -0.385 OA
ATOM     19  H   UNL     1      12.249  -8.495  -8.213  1.00  0.00    +0.211 HD
ENDBRANCH  15  18
ENDBRANCH   7   8
ENDBRANCH   1   7
BRANCH   2  20
ATOM     20  O   UNL     1       8.390  -8.867  -4.858  1.00  0.00    -0.385 OA
ATOM     21  H   UNL     1       8.560  -9.021  -5.808  1.00  0.00    +0.211 HD
ENDBRANCH   2  20
BRANCH   3  22
ATOM     22  O   UNL     1       7.724  -7.855  -2.358  1.00  0.00    -0.387 OA
ATOM     23  H   UNL     1       7.716  -7.326  -1.532  1.00  0.00    +0.211 HD
ENDBRANCH   3  22
BRANCH   5  24
ATOM     24  C   UNL     1       6.620  -4.393  -5.161  1.00  0.00    +0.220 C 
BRANCH  24  25
ATOM     25  O   UNL     1       5.995  -3.300  -4.492  1.00  0.00    -0.245 OA
BRANCH  25  26
ATOM     26  S   UNL     1       4.457  -3.488  -4.007  1.00  0.00    +0.397 S 
ATOM     27  O   UNL     1       3.612  -2.512  -4.655  1.00  0.00    -0.169 OA
ATOM     28  O   UNL     1       4.454  -3.681  -2.574  1.00  0.00    -0.169 OA
BRANCH  26  29
ATOM     29  O   UNL     1       4.090  -4.933  -4.615  1.00  0.00    -0.264 OA
ATOM     30  H   UNL     1       3.150  -4.898  -4.885  1.00  0.00    +0.236 HD
ENDBRANCH  26  29
ENDBRANCH  25  26
ENDBRANCH  24  25
ENDBRANCH   5  24
BRANCH   4  31
ATOM     31  O   UNL     1       6.442  -5.631  -2.718  1.00  0.00    -0.387 OA
ATOM     32  H   UNL     1       5.930  -5.159  -3.413  1.00  0.00    +0.211 HD
ENDBRANCH   4  31
TORSDOF 11
ENDMDL
MODEL 2
REMARK VINA RESULT:    -7.989      0.922      2.186
REMARK INTER + INTRA:         -12.581
REMARK INTER:                 -11.698
REMARK INTRA:                  -0.883
REMARK UNBOUND:                -0.856
REMARK SMILES O=S(=O)(O)OC[C@@H]1O[C@H](O[C@H]2[C@@H]3OC[C@H]2O[C@@H](O)[C@H]3O)[C@@H](O)[C@H](O)[C@@H]1O
REMARK SMILES IDX 9 1 21 2 23 3 25 4 7 5 8 6 10 7 11 8 14 9 15 10 13 11 16 12
REMARK SMILES IDX 12 13 17 14 19 15 18 16 20 18 22 20 24 22 6 24 5 25 2 26
REMARK SMILES IDX 1 27 3 28 4 29 26 31
REMARK H PARENT 18 17 20 19 22 21 24 23 4 30 26 32
ROOT
ATOM      1  C   UNL     1       8.737  -6.785  -5.674  1.00  0.00    +0.282 C 
ATOM      2  C   UNL     1       7.858  -7.581  -4.691  1.00  0.00    +0.202 C 
ATOM      3  C   UNL     1       8.181  -7.115  -3.282  1.00  0.00    +0.179 C 
ATOM      4  C   UNL     1       7.778  -5.645  -3.130  1.00  0.00    +0.177 C 
ATOM      5  C   UNL     1       8.034  -4.815  -4.411  1.00  0.00    +0.180 C 
ATOM      6  O   UNL     1       8.996  -5.437  -5.284  1.00  0.00    -0.341 OA
ENDROOT
BRANCH   1   7
ATOM      7  O   UNL     1       8.147  -6.891  -6.973  1.00  0.00    -0.341 OA
BRANCH   7   8
ATOM      8  C   UNL     1       8.787  -7.861  -7.796  1.00  0.00    +0.184 C 
ATOM      9  C   UNL     1      10.594  -8.646  -9.066  1.00  0.00    +0.195 C 
ATOM     10  C   UNL     1      10.300  -7.728  -7.878  1.00  0.00    +0.179 C 
ATOM     11  O   UNL     1       9.447  -8.532  -9.948  1.00  0.00    -0.370 OA
ATOM     12  O   UNL     1      10.671  -6.358  -8.111  1.00  0.00    -0.342 OA
ATOM     13  C   UNL     1       8.495  -7.665  -9.279  1.00  0.00    +0.184 C 
ATOM     14  C   UNL     1      10.174  -5.764  -9.305  1.00  0.00    +0.279 C 
ATOM     15  C   UNL     1       8.740  -6.203  -9.678  1.00  0.00    +0.202 C 
BRANCH  14  16
ATOM     16  O   UNL     1      11.075  -6.053 -10.370  1.00  0.00    -0.366 OA
ATOM     17  H   UNL     1      10.933  -6.998 -10.560  1.00  0.00    +0.213 HD
ENDBRANCH  14  16
BRANCH  15  18
ATOM     18  O   UNL     1       8.500  -6.023 -11.080  1.00  0.00    -0.385 OA
ATOM     19  H   UNL     1       8.912  -5.155 -11.280  1.00  0.00    +0.211 HD
ENDBRANCH  15  18
ENDBRANCH   7   8
ENDBRANCH   1   7
BRANCH   2  20
ATOM     20  O   UNL     1       8.107  -8.994  -4.789  1.00  0.00    -0.385 OA
ATOM     21  H   UNL     1       9.053  -9.087  -5.017  1.00  0.00    +0.211 HD
ENDBRANCH   2  20
BRANCH   3  22
ATOM     22  O   UNL     1       7.466  -7.904  -2.316  1.00  0.00    -0.387 OA
ATOM     23  H   UNL     1       7.938  -7.752  -1.470  1.00  0.00    +0.211 HD
ENDBRANCH   3  22
BRANCH   5  24
ATOM     24  C   UNL     1       6.768  -4.379  -5.170  1.00  0.00    +0.220 C 
BRANCH  24  25
ATOM     25  O   UNL     1       6.104  -3.376  -4.405  1.00  0.00    -0.245 OA
BRANCH  25  26
ATOM     26  S   UNL     1       4.531  -3.596  -4.069  1.00  0.00    +0.397 S 
ATOM     27  O   UNL     1       4.102  -4.893  -4.543  1.00  0.00    -0.169 OA
ATOM     28  O   UNL     1       3.822  -2.382  -4.400  1.00  0.00    -0.169 OA
BRANCH  26  29
ATOM     29  O   UNL     1       4.537  -3.642  -2.460  1.00  0.00    -0.264 OA
ATOM     30  H   UNL     1       3.714  -3.205  -2.160  1.00  0.00    +0.236 HD
ENDBRANCH  26  29
ENDBRANCH  25  26
ENDBRANCH  24  25
ENDBRANCH   5  24
BRANCH   4  31
ATOM     31  O   UNL     1       6.406  -5.575  -2.726  1.00  0.00    -0.387 OA
ATOM     32  H   UNL     1       6.438  -5.382  -1.762  1.00  0.00    +0.211 HD
ENDBRANCH   4  31
TORSDOF 11
ENDMDL
MODEL 3
REMARK VINA RESULT:    -7.745      2.981      6.779
REMARK INTER + INTRA:         -12.223
REMARK INTER:                 -11.079
REMARK INTRA:                  -1.144
REMARK UNBOUND:                -0.856
REMARK SMILES O=S(=O)(O)OC[C@@H]1O[C@H](O[C@H]2[C@@H]3OC[C@H]2O[C@@H](O)[C@H]3O)[C@@H](O)[C@H](O)[C@@H]1O
REMARK SMILES IDX 9 1 21 2 23 3 25 4 7 5 8 6 10 7 11 8 14 9 15 10 13 11 16 12
REMARK SMILES IDX 12 13 17 14 19 15 18 16 20 18 22 20 24 22 6 24 5 25 2 26
REMARK SMILES IDX 1 27 3 28 4 29 26 31
REMARK H PARENT 18 17 20 19 22 21 24 23 4 30 26 32
ROOT
ATOM      1  C   UNL     1       6.922  -4.503  -4.601  1.00  0.00    +0.282 C 
ATOM      2  C   UNL     1       8.420  -4.469  -4.241  1.00  0.00    +0.202 C 
ATOM      3  C   UNL     1       8.726  -5.675  -3.368  1.00  0.00    +0.179 C 
ATOM      4  C   UNL     1       8.505  -6.954  -4.180  1.00  0.00    +0.177 C 
ATOM      5  C   UNL     1       7.303  -6.854  -5.149  1.00  0.00    +0.180 C 
ATOM      6  O   UNL     1       6.382  -5.812  -4.774  1.00  0.00    -0.341 OA
ENDROOT
BRANCH   1   7
ATOM      7  O   UNL     1       6.726  -3.659  -5.738  1.00  0.00    -0.341 OA
BRANCH   7   8
ATOM      8  C   UNL     1       5.653  -2.738  -5.569  1.00  0.00    +0.184 C 
ATOM      9  C   UNL     1       4.341  -0.923  -6.260  1.00  0.00    +0.195 C 
ATOM     10  C   UNL     1       5.205  -2.041  -6.844  1.00  0.00    +0.179 C 
ATOM     11  O   UNL     1       4.953  -0.572  -4.991  1.00  0.00    -0.370 OA
ATOM     12  O   UNL     1       6.344  -1.557  -7.579  1.00  0.00    -0.342 OA
ATOM     13  C   UNL     1       6.062  -1.488  -4.799  1.00  0.00    +0.184 C 
ATOM     14  C   UNL     1       7.175  -0.618  -6.906  1.00  0.00    +0.279 C 
ATOM     15  C   UNL     1       7.346  -0.895  -5.395  1.00  0.00    +0.202 C 
BRANCH  14  16
ATOM     16  O   UNL     1       6.648   0.690  -7.113  1.00  0.00    -0.366 OA
ATOM     17  H   UNL     1       6.347   0.688  -8.040  1.00  0.00    +0.213 HD
ENDBRANCH  14  16
BRANCH  15  18
ATOM     18  O   UNL     1       7.714   0.301  -4.696  1.00  0.00    -0.385 OA
ATOM     19  H   UNL     1       7.709   0.993  -5.391  1.00  0.00    +0.211 HD
ENDBRANCH  15  18
ENDBRANCH   7   8
ENDBRANCH   1   7
BRANCH   2  20
ATOM     20  O   UNL     1       8.761  -3.269  -3.524  1.00  0.00    -0.385 OA
ATOM     21  H   UNL     1       8.182  -2.567  -3.882  1.00  0.00    +0.211 HD
ENDBRANCH   2  20
BRANCH   3  22
ATOM     22  O   UNL     1      10.089  -5.632  -2.914  1.00  0.00    -0.387 OA
ATOM     23  H   UNL     1      10.198  -4.735  -2.534  1.00  0.00    +0.211 HD
ENDBRANCH   3  22
BRANCH   5  24
ATOM     24  C   UNL     1       7.673  -6.782  -6.642  1.00  0.00    +0.220 C 
BRANCH  24  25
ATOM     25  O   UNL     1       7.806  -8.111  -7.140  1.00  0.00    -0.245 OA
BRANCH  25  26
ATOM     26  S   UNL     1       8.928  -8.384  -8.280  1.00  0.00    +0.397 S 
ATOM     27  O   UNL     1       9.201  -9.800  -8.375  1.00  0.00    -0.169 OA
ATOM     28  O   UNL     1       9.981  -7.406  -8.124  1.00  0.00    -0.169 OA
BRANCH  26  29
ATOM     29  O   UNL     1       8.155  -7.944  -9.622  1.00  0.00    -0.264 OA
ATOM     30  H   UNL     1       8.822  -7.913 -10.338  1.00  0.00    +0.236 HD
ENDBRANCH  26  29
ENDBRANCH  25  26
ENDBRANCH  24  25
ENDBRANCH   5  24
BRANCH   4  31
ATOM     31  O   UNL     1       9.713  -7.283  -4.875  1.00  0.00    -0.387 OA
ATOM     32  H   UNL     1       9.656  -8.253  -5.032  1.00  0.00    +0.211 HD
ENDBRANCH   4  31
TORSDOF 11
ENDMDL
MODEL 4
REMARK VINA RESULT:    -7.606      4.512      7.563
REMARK INTER + INTRA:         -12.019
REMARK INTER:                 -10.951
REMARK INTRA:                  -1.068
REMARK UNBOUND:                -0.856
REMARK SMILES O=S(=O)(O)OC[C@@H]1O[C@H](O[C@H]2[C@@H]3OC[C@H]2O[C@@H](O)[C@H]3O)[C@@H](O)[C@H](O)[C@@H]1O
REMARK SMILES IDX 9 1 21 2 23 3 25 4 7 5 8 6 10 7 11 8 14 9 15 10 13 11 16 12
REMARK SMILES IDX 12 13 17 14 19 15 18 16 20 18 22 20 24 22 6 24 5 25 2 26
REMARK SMILES IDX 1 27 3 28 4 29 26 31
REMARK H PARENT 18 17 20 19 22 21 24 23 4 30 26 32
ROOT
ATOM      1  C   UNL     1       5.745  -1.709  -6.254  1.00  0.00    +0.282 C 
ATOM      2  C   UNL     1       6.606  -1.049  -5.159  1.00  0.00    +0.202 C 
ATOM      3  C   UNL     1       6.366  -1.791  -3.856  1.00  0.00    +0.179 C 
ATOM      4  C   UNL     1       6.869  -3.230  -3.993  1.00  0.00    +0.177 C 
ATOM      5  C   UNL     1       6.621  -3.824  -5.400  1.00  0.00    +0.180 C 
ATOM      6  O   UNL     1       5.590  -3.120  -6.118  1.00  0.00    -0.341 OA
ENDROOT
BRANCH   1   7
ATOM      7  O   UNL     1       6.279  -1.322  -7.523  1.00  0.00    -0.341 OA
BRANCH   7   8
ATOM      8  C   UNL     1       5.273  -1.104  -8.506  1.00  0.00    +0.184 C 
ATOM      9  C   UNL     1       4.525  -0.286 -10.572  1.00  0.00    +0.195 C 
ATOM     10  C   UNL     1       5.800  -0.798  -9.900  1.00  0.00    +0.179 C 
ATOM     11  O   UNL     1       3.768   0.381  -9.529  1.00  0.00    -0.370 OA
ATOM     12  O   UNL     1       6.845   0.189  -9.835  1.00  0.00    -0.342 OA
ATOM     13  C   UNL     1       4.512   0.200  -8.297  1.00  0.00    +0.184 C 
ATOM     14  C   UNL     1       6.488   1.450  -9.280  1.00  0.00    +0.279 C 
ATOM     15  C   UNL     1       5.497   1.361  -8.098  1.00  0.00    +0.202 C 
BRANCH  14  16
ATOM     16  O   UNL     1       5.954   2.271 -10.315  1.00  0.00    -0.366 OA
ATOM     17  H   UNL     1       6.688   2.863 -10.561  1.00  0.00    +0.213 HD
ENDBRANCH  14  16
BRANCH  15  18
ATOM     18  O   UNL     1       4.785   2.594  -7.935  1.00  0.00    -0.385 OA
ATOM     19  H   UNL     1       4.921   3.061  -8.788  1.00  0.00    +0.211 HD
ENDBRANCH  15  18
ENDBRANCH   7   8
ENDBRANCH   1   7
BRANCH   2  20
ATOM     20  O   UNL     1       6.262   0.336  -4.985  1.00  0.00    -0.385 OA
ATOM     21  H   UNL     1       6.705   0.818  -5.711  1.00  0.00    +0.211 HD
ENDBRANCH   2  20
BRANCH   3  22
ATOM     22  O   UNL     1       7.063  -1.146  -2.776  1.00  0.00    -0.387 OA
ATOM     23  H   UNL     1       7.341  -0.279  -3.140  1.00  0.00    +0.211 HD
ENDBRANCH   3  22
BRANCH   5  24
ATOM     24  C   UNL     1       7.885  -4.021  -6.257  1.00  0.00    +0.220 C 
BRANCH  24  25
ATOM     25  O   UNL     1       7.947  -5.386  -6.665  1.00  0.00    -0.245 OA
BRANCH  25  26
ATOM     26  S   UNL     1       8.648  -6.446  -5.655  1.00  0.00    +0.397 S 
ATOM     27  O   UNL     1       9.353  -5.740  -4.609  1.00  0.00    -0.169 OA
ATOM     28  O   UNL     1       9.276  -7.480  -6.446  1.00  0.00    -0.169 OA
BRANCH  26  29
ATOM     29  O   UNL     1       7.371  -7.162  -4.984  1.00  0.00    -0.264 OA
ATOM     30  H   UNL     1       7.627  -8.089  -4.803  1.00  0.00    +0.236 HD
ENDBRANCH  26  29
ENDBRANCH  25  26
ENDBRANCH  24  25
ENDBRANCH   5  24
BRANCH   4  31
ATOM     31  O   UNL     1       8.256  -3.278  -3.642  1.00  0.00    -0.387 OA
ATOM     32  H   UNL     1       8.712  -3.585  -4.458  1.00  0.00    +0.211 HD
ENDBRANCH   4  31
TORSDOF 11
ENDMDL
MODEL 5
REMARK VINA RESULT:    -7.537      4.383      7.197
REMARK INTER + INTRA:         -11.917
REMARK INTER:                 -11.129
REMARK INTRA:                  -0.788
REMARK UNBOUND:                -0.856
REMARK SMILES O=S(=O)(O)OC[C@@H]1O[C@H](O[C@H]2[C@@H]3OC[C@H]2O[C@@H](O)[C@H]3O)[C@@H](O)[C@H](O)[C@@H]1O
REMARK SMILES IDX 9 1 21 2 23 3 25 4 7 5 8 6 10 7 11 8 14 9 15 10 13 11 16 12
REMARK SMILES IDX 12 13 17 14 19 15 18 16 20 18 22 20 24 22 6 24 5 25 2 26
REMARK SMILES IDX 1 27 3 28 4 29 26 31
REMARK H PARENT 18 17 20 19 22 21 24 23 4 30 26 32
ROOT
ATOM      1  C   UNL     1       7.646  -1.954  -8.125  1.00  0.00    +0.282 C 
ATOM      2  C   UNL     1       8.146  -3.338  -8.585  1.00  0.00    +0.202 C 
ATOM      3  C   UNL     1       9.267  -3.770  -7.656  1.00  0.00    +0.179 C 
ATOM      4  C   UNL     1       8.709  -3.959  -6.242  1.00  0.00    +0.177 C 
ATOM      5  C   UNL     1       7.620  -2.921  -5.881  1.00  0.00    +0.180 C 
ATOM      6  O   UNL     1       7.682  -1.747  -6.714  1.00  0.00    -0.341 OA
ENDROOT
BRANCH   1   7
ATOM      7  O   UNL     1       6.349  -1.747  -8.691  1.00  0.00    -0.341 OA
BRANCH   7   8
ATOM      8  C   UNL     1       6.319  -0.681  -9.634  1.00  0.00    +0.184 C 
ATOM      9  C   UNL     1       6.450   1.586 -10.216  1.00  0.00    +0.195 C 
ATOM     10  C   UNL     1       6.964   0.611  -9.156  1.00  0.00    +0.179 C 
ATOM     11  O   UNL     1       5.133   1.107 -10.590  1.00  0.00    -0.370 OA
ATOM     12  O   UNL     1       6.520   0.931  -7.825  1.00  0.00    -0.342 OA
ATOM     13  C   UNL     1       4.917  -0.125  -9.855  1.00  0.00    +0.184 C 
ATOM     14  C   UNL     1       5.119   1.122  -7.656  1.00  0.00    +0.279 C 
ATOM     15  C   UNL     1       4.246   0.173  -8.507  1.00  0.00    +0.202 C 
BRANCH  14  16
ATOM     16  O   UNL     1       4.805   2.481  -7.948  1.00  0.00    -0.366 OA
ATOM     17  H   UNL     1       5.508   2.994  -7.511  1.00  0.00    +0.213 HD
ENDBRANCH  14  16
BRANCH  15  18
ATOM     18  O   UNL     1       2.941   0.727  -8.712  1.00  0.00    -0.385 OA
ATOM     19  H   UNL     1       2.358   0.179  -8.144  1.00  0.00    +0.211 HD
ENDBRANCH  15  18
ENDBRANCH   7   8
ENDBRANCH   1   7
BRANCH   2  20
ATOM     20  O   UNL     1       8.640  -3.296  -9.934  1.00  0.00    -0.385 OA
ATOM     21  H   UNL     1       8.086  -2.644 -10.405  1.00  0.00    +0.211 HD
ENDBRANCH   2  20
BRANCH   3  22
ATOM     22  O   UNL     1       9.843  -5.008  -8.106  1.00  0.00    -0.387 OA
ATOM     23  H   UNL     1       9.095  -5.642  -8.119  1.00  0.00    +0.211 HD
ENDBRANCH   3  22
BRANCH   5  24
ATOM     24  C   UNL     1       6.189  -3.482  -5.788  1.00  0.00    +0.220 C 
BRANCH  24  25
ATOM     25  O   UNL     1       5.940  -3.863  -4.437  1.00  0.00    -0.245 OA
BRANCH  25  26
ATOM     26  S   UNL     1       4.417  -3.744  -3.885  1.00  0.00    +0.397 S 
ATOM     27  O   UNL     1       3.665  -4.922  -4.254  1.00  0.00    -0.169 OA
ATOM     28  O   UNL     1       3.939  -2.408  -4.158  1.00  0.00    -0.169 OA
BRANCH  26  29
ATOM     29  O   UNL     1       4.636  -3.784  -2.291  1.00  0.00    -0.264 OA
ATOM     30  H   UNL     1       4.956  -2.898  -2.025  1.00  0.00    +0.236 HD
ENDBRANCH  26  29
ENDBRANCH  25  26
ENDBRANCH  24  25
ENDBRANCH   5  24
BRANCH   4  31
ATOM     31  O   UNL     1       8.221  -5.298  -6.105  1.00  0.00    -0.387 OA
ATOM     32  H   UNL     1       8.834  -5.845  -6.646  1.00  0.00    +0.211 HD
ENDBRANCH   4  31
TORSDOF 11
ENDMDL
MODEL 6
REMARK VINA RESULT:    -7.287     27.845     29.475
REMARK INTER + INTRA:         -11.551
REMARK INTER:                  -9.786
REMARK INTRA:                  -1.765
REMARK UNBOUND:                -0.856
REMARK SMILES O=S(=O)(O)OC[C@@H]1O[C@H](O[C@H]2[C@@H]3OC[C@H]2O[C@@H](O)[C@H]3O)[C@@H](O)[C@H](O)[C@@H]1O
REMARK SMILES IDX 9 1 21 2 23 3 25 4 7 5 8 6 10 7 11 8 14 9 15 10 13 11 16 12
REMARK SMILES IDX 12 13 17 14 19 15 18 16 20 18 22 20 24 22 6 24 5 25 2 26
REMARK SMILES IDX 1 27 3 28 4 29 26 31
REMARK H PARENT 18 17 20 19 22 21 24 23 4 30 26 32
ROOT
ATOM      1  C   UNL     1     -17.276  -6.100   8.886  1.00  0.00    +0.282 C 
ATOM      2  C   UNL     1     -16.315  -6.762   7.880  1.00  0.00    +0.202 C 
ATOM      3  C   UNL     1     -17.127  -7.215   6.678  1.00  0.00    +0.179 C 
ATOM      4  C   UNL     1     -17.714  -5.989   5.973  1.00  0.00    +0.177 C 
ATOM      5  C   UNL     1     -18.150  -4.879   6.959  1.00  0.00    +0.180 C 
ATOM      6  O   UNL     1     -18.355  -5.379   8.294  1.00  0.00    -0.341 OA
ENDROOT
BRANCH   1   7
ATOM      7  O   UNL     1     -16.492  -5.304   9.780  1.00  0.00    -0.341 OA
BRANCH   7   8
ATOM      8  C   UNL     1     -16.553  -5.759  11.128  1.00  0.00    +0.184 C 
ATOM      9  C   UNL     1     -16.388  -5.432  13.443  1.00  0.00    +0.195 C 
ATOM     10  C   UNL     1     -16.712  -4.657  12.165  1.00  0.00    +0.179 C 
ATOM     11  O   UNL     1     -15.404  -6.428  13.064  1.00  0.00    -0.370 OA
ATOM     12  O   UNL     1     -15.793  -3.583  11.901  1.00  0.00    -0.342 OA
ATOM     13  C   UNL     1     -15.221  -6.305  11.629  1.00  0.00    +0.184 C 
ATOM     14  C   UNL     1     -14.409  -3.919  11.914  1.00  0.00    +0.279 C 
ATOM     15  C   UNL     1     -14.092  -5.311  11.323  1.00  0.00    +0.202 C 
BRANCH  14  16
ATOM     16  O   UNL     1     -13.930  -3.827  13.254  1.00  0.00    -0.366 OA
ATOM     17  H   UNL     1     -14.567  -3.242  13.702  1.00  0.00    +0.213 HD
ENDBRANCH  14  16
BRANCH  15  18
ATOM     18  O   UNL     1     -12.844  -5.805  11.825  1.00  0.00    -0.385 OA
ATOM     19  H   UNL     1     -12.188  -5.142  11.521  1.00  0.00    +0.211 HD
ENDBRANCH  15  18
ENDBRANCH   7   8
ENDBRANCH   1   7
BRANCH   2  20
ATOM     20  O   UNL     1     -15.652  -7.900   8.457  1.00  0.00    -0.385 OA
ATOM     21  H   UNL     1     -15.529  -7.689   9.404  1.00  0.00    +0.211 HD
ENDBRANCH   2  20
BRANCH   3  22
ATOM     22  O   UNL     1     -16.295  -7.939   5.755  1.00  0.00    -0.387 OA
ATOM     23  H   UNL     1     -16.782  -7.911   4.905  1.00  0.00    +0.211 HD
ENDBRANCH   3  22
BRANCH   5  24
ATOM     24  C   UNL     1     -17.268  -3.616   6.949  1.00  0.00    +0.220 C 
BRANCH  24  25
ATOM     25  O   UNL     1     -18.010  -2.542   7.523  1.00  0.00    -0.245 OA
BRANCH  25  26
ATOM     26  S   UNL     1     -17.449  -1.884   8.897  1.00  0.00    +0.397 S 
ATOM     27  O   UNL     1     -18.211  -2.371  10.024  1.00  0.00    -0.169 OA
ATOM     28  O   UNL     1     -17.229  -0.474   8.668  1.00  0.00    -0.169 OA
BRANCH  26  29
ATOM     29  O   UNL     1     -15.973  -2.519   8.993  1.00  0.00    -0.264 OA
ATOM     30  H   UNL     1     -16.078  -3.491   8.948  1.00  0.00    +0.236 HD
ENDBRANCH  26  29
ENDBRANCH  25  26
ENDBRANCH  24  25
ENDBRANCH   5  24
BRANCH   4  31
ATOM     31  O   UNL     1     -16.768  -5.500   5.017  1.00  0.00    -0.387 OA
ATOM     32  H   UNL     1     -15.892  -5.610   5.451  1.00  0.00    +0.211 HD
ENDBRANCH   4  31
TORSDOF 11
ENDMDL
MODEL 7
REMARK VINA RESULT:    -7.228      5.320      7.961
REMARK INTER + INTRA:         -11.464
REMARK INTER:                 -10.266
REMARK INTRA:                  -1.199
REMARK UNBOUND:                -0.856
REMARK SMILES O=S(=O)(O)OC[C@@H]1O[C@H](O[C@H]2[C@@H]3OC[C@H]2O[C@@H](O)[C@H]3O)[C@@H](O)[C@H](O)[C@@H]1O
REMARK SMILES IDX 9 1 21 2 23 3 25 4 7 5 8 6 10 7 11 8 14 9 15 10 13 11 16 12
REMARK SMILES IDX 12 13 17 14 19 15 18 16 20 18 22 20 24 22 6 24 5 25 2 26
REMARK SMILES IDX 1 27 3 28 4 29 26 31
REMARK H PARENT 18 17 20 19 22 21 24 23 4 30 26 32
ROOT
ATOM      1  C   UNL     1       9.325 -12.999  -4.740  1.00  0.00    +0.282 C 
ATOM      2  C   UNL     1      10.767 -12.543  -4.446  1.00  0.00    +0.202 C 
ATOM      3  C   UNL     1      11.259 -11.731  -5.633  1.00  0.00    +0.179 C 
ATOM      4  C   UNL     1      10.419 -10.457  -5.756  1.00  0.00    +0.177 C 
ATOM      5  C   UNL     1       8.929 -10.680  -5.401  1.00  0.00    +0.180 C 
ATOM      6  O   UNL     1       8.547 -12.065  -5.487  1.00  0.00    -0.341 OA
ENDROOT
BRANCH   1   7
ATOM      7  O   UNL     1       8.720 -13.366  -3.496  1.00  0.00    -0.341 OA
BRANCH   7   8
ATOM      8  C   UNL     1       7.335 -13.669  -3.620  1.00  0.00    +0.184 C 
ATOM      9  C   UNL     1       5.123 -13.648  -2.843  1.00  0.00    +0.195 C 
ATOM     10  C   UNL     1       6.421 -12.848  -2.723  1.00  0.00    +0.179 C 
ATOM     11  O   UNL     1       5.525 -15.033  -3.003  1.00  0.00    -0.370 OA
ATOM     12  O   UNL     1       6.942 -12.804  -1.382  1.00  0.00    -0.342 OA
ATOM     13  C   UNL     1       6.975 -15.040  -3.059  1.00  0.00    +0.184 C 
ATOM     14  C   UNL     1       7.094 -14.057  -0.724  1.00  0.00    +0.279 C 
ATOM     15  C   UNL     1       7.559 -15.204  -1.649  1.00  0.00    +0.202 C 
BRANCH  14  16
ATOM     16  O   UNL     1       5.860 -14.396  -0.095  1.00  0.00    -0.366 OA
ATOM     17  H   UNL     1       5.198 -14.333  -0.807  1.00  0.00    +0.213 HD
ENDBRANCH  14  16
BRANCH  15  18
ATOM     18  O   UNL     1       7.193 -16.479  -1.105  1.00  0.00    -0.385 OA
ATOM     19  H   UNL     1       6.219 -16.514  -1.219  1.00  0.00    +0.211 HD
ENDBRANCH  15  18
ENDBRANCH   7   8
ENDBRANCH   1   7
BRANCH   2  20
ATOM     20  O   UNL     1      11.643 -13.666  -4.248  1.00  0.00    -0.385 OA
ATOM     21  H   UNL     1      11.192 -14.250  -3.606  1.00  0.00    +0.211 HD
ENDBRANCH   2  20
BRANCH   3  22
ATOM     22  O   UNL     1      12.640 -11.373  -5.458  1.00  0.00    -0.387 OA
ATOM     23  H   UNL     1      12.885 -11.740  -4.582  1.00  0.00    +0.211 HD
ENDBRANCH   3  22
BRANCH   5  24
ATOM     24  C   UNL     1       8.472 -10.040  -4.077  1.00  0.00    +0.220 C 
BRANCH  24  25
ATOM     25  O   UNL     1       7.555  -8.989  -4.376  1.00  0.00    -0.245 OA
BRANCH  25  26
ATOM     26  S   UNL     1       7.961  -7.481  -3.933  1.00  0.00    +0.397 S 
ATOM     27  O   UNL     1       7.178  -6.521  -4.677  1.00  0.00    -0.169 OA
ATOM     28  O   UNL     1       9.402  -7.404  -3.855  1.00  0.00    -0.169 OA
BRANCH  26  29
ATOM     29  O   UNL     1       7.464  -7.437  -2.403  1.00  0.00    -0.264 OA
ATOM     30  H   UNL     1       7.163  -6.523  -2.227  1.00  0.00    +0.236 HD
ENDBRANCH  26  29
ENDBRANCH  25  26
ENDBRANCH  24  25
ENDBRANCH   5  24
BRANCH   4  31
ATOM     31  O   UNL     1      11.003  -9.430  -4.946  1.00  0.00    -0.387 OA
ATOM     32  H   UNL     1      11.930  -9.355  -5.265  1.00  0.00    +0.211 HD
ENDBRANCH   4  31
TORSDOF 11
ENDMDL
MODEL 8
REMARK VINA RESULT:    -7.181     27.494     31.198
REMARK INTER + INTRA:         -11.396
REMARK INTER:                 -10.430
REMARK INTRA:                  -0.966
REMARK UNBOUND:                -0.856
REMARK SMILES O=S(=O)(O)OC[C@@H]1O[C@H](O[C@H]2[C@@H]3OC[C@H]2O[C@@H](O)[C@H]3O)[C@@H](O)[C@H](O)[C@@H]1O
REMARK SMILES IDX 9 1 21 2 23 3 25 4 7 5 8 6 10 7 11 8 14 9 15 10 13 11 16 12
REMARK SMILES IDX 12 13 17 14 19 15 18 16 20 18 22 20 24 22 6 24 5 25 2 26
REMARK SMILES IDX 1 27 3 28 4 29 26 31
REMARK H PARENT 18 17 20 19 22 21 24 23 4 30 26 32
ROOT
ATOM      1  C   UNL     1     -16.859  -4.118  11.984  1.00  0.00    +0.282 C 
ATOM      2  C   UNL     1     -15.508  -3.379  11.934  1.00  0.00    +0.202 C 
ATOM      3  C   UNL     1     -14.404  -4.390  12.195  1.00  0.00    +0.179 C 
ATOM      4  C   UNL     1     -14.379  -5.415  11.057  1.00  0.00    +0.177 C 
ATOM      5  C   UNL     1     -15.791  -5.771  10.535  1.00  0.00    +0.180 C 
ATOM      6  O   UNL     1     -16.824  -5.455  11.488  1.00  0.00    -0.341 OA
ENDROOT
BRANCH   1   7
ATOM      7  O   UNL     1     -17.830  -3.299  11.325  1.00  0.00    -0.341 OA
BRANCH   7   8
ATOM      8  C   UNL     1     -18.983  -3.055  12.123  1.00  0.00    +0.184 C 
ATOM      9  C   UNL     1     -21.283  -2.698  12.401  1.00  0.00    +0.195 C 
ATOM     10  C   UNL     1     -20.305  -3.392  11.451  1.00  0.00    +0.179 C 
ATOM     11  O   UNL     1     -20.589  -1.525  12.897  1.00  0.00    -0.370 OA
ATOM     12  O   UNL     1     -20.338  -2.862  10.113  1.00  0.00    -0.342 OA
ATOM     13  C   UNL     1     -19.250  -1.570  12.340  1.00  0.00    +0.184 C 
ATOM     14  C   UNL     1     -20.199  -1.451   9.991  1.00  0.00    +0.279 C 
ATOM     15  C   UNL     1     -19.210  -0.824  10.999  1.00  0.00    +0.202 C 
BRANCH  14  16
ATOM     16  O   UNL     1     -21.486  -0.852  10.120  1.00  0.00    -0.366 OA
ATOM     17  H   UNL     1     -21.312   0.015  10.528  1.00  0.00    +0.213 HD
ENDBRANCH  14  16
BRANCH  15  18
ATOM     18  O   UNL     1     -19.495   0.567  11.194  1.00  0.00    -0.385 OA
ATOM     19  H   UNL     1     -20.179   0.766  10.519  1.00  0.00    +0.211 HD
ENDBRANCH  15  18
ENDBRANCH   7   8
ENDBRANCH   1   7
BRANCH   2  20
ATOM     20  O   UNL     1     -15.441  -2.340  12.927  1.00  0.00    -0.385 OA
ATOM     21  H   UNL     1     -14.539  -2.382  13.301  1.00  0.00    +0.211 HD
ENDBRANCH   2  20
BRANCH   3  22
ATOM     22  O   UNL     1     -13.128  -3.732  12.268  1.00  0.00    -0.387 OA
ATOM     23  H   UNL     1     -13.185  -3.163  13.065  1.00  0.00    +0.211 HD
ENDBRANCH   3  22
BRANCH   5  24
ATOM     24  C   UNL     1     -16.123  -5.232   9.131  1.00  0.00    +0.220 C 
BRANCH  24  25
ATOM     25  O   UNL     1     -15.318  -5.925   8.179  1.00  0.00    -0.245 OA
BRANCH  25  26
ATOM     26  S   UNL     1     -15.845  -7.367   7.650  1.00  0.00    +0.397 S 
ATOM     27  O   UNL     1     -17.239  -7.278   7.281  1.00  0.00    -0.169 OA
ATOM     28  O   UNL     1     -15.348  -8.387   8.545  1.00  0.00    -0.169 OA
BRANCH  26  29
ATOM     29  O   UNL     1     -14.992  -7.557   6.298  1.00  0.00    -0.264 OA
ATOM     30  H   UNL     1     -14.050  -7.444   6.536  1.00  0.00    +0.236 HD
ENDBRANCH  26  29
ENDBRANCH  25  26
ENDBRANCH  24  25
ENDBRANCH   5  24
BRANCH   4  31
ATOM     31  O   UNL     1     -13.539  -4.926  10.005  1.00  0.00    -0.387 OA
ATOM     32  H   UNL     1     -12.725  -5.475  10.058  1.00  0.00    +0.211 HD
ENDBRANCH   4  31
TORSDOF 11
ENDMDL
MODEL 9
REMARK VINA RESULT:    -6.897     27.796     29.577
REMARK INTER + INTRA:         -10.978
REMARK INTER:                  -9.511
REMARK INTRA:                  -1.468
REMARK UNBOUND:                -0.856
REMARK SMILES O=S(=O)(O)OC[C@@H]1O[C@H](O[C@H]2[C@@H]3OC[C@H]2O[C@@H](O)[C@H]3O)[C@@H](O)[C@H](O)[C@@H]1O
REMARK SMILES IDX 9 1 21 2 23 3 25 4 7 5 8 6 10 7 11 8 14 9 15 10 13 11 16 12
REMARK SMILES IDX 12 13 17 14 19 15 18 16 20 18 22 20 24 22 6 24 5 25 2 26
REMARK SMILES IDX 1 27 3 28 4 29 26 31
REMARK H PARENT 18 17 20 19 22 21 24 23 4 30 26 32
ROOT
ATOM      1  C   UNL     1     -15.496  -4.445  10.092  1.00  0.00    +0.282 C 
ATOM      2  C   UNL     1     -15.208  -5.586  11.087  1.00  0.00    +0.202 C 
ATOM      3  C   UNL     1     -14.223  -5.074  12.124  1.00  0.00    +0.179 C 
ATOM      4  C   UNL     1     -14.878  -3.950  12.932  1.00  0.00    +0.177 C 
ATOM      5  C   UNL     1     -15.799  -3.049  12.075  1.00  0.00    +0.180 C 
ATOM      6  O   UNL     1     -15.501  -3.140  10.669  1.00  0.00    -0.341 OA
ENDROOT
BRANCH   1   7
ATOM      7  O   UNL     1     -16.710  -4.760   9.405  1.00  0.00    -0.341 OA
BRANCH   7   8
ATOM      8  C   UNL     1     -16.655  -4.457   8.014  1.00  0.00    +0.184 C 
ATOM      9  C   UNL     1     -17.582  -4.389   5.862  1.00  0.00    +0.195 C 
ATOM     10  C   UNL     1     -18.010  -4.361   7.330  1.00  0.00    +0.179 C 
ATOM     11  O   UNL     1     -16.400  -5.229   5.811  1.00  0.00    -0.370 OA
ATOM     12  O   UNL     1     -18.841  -5.476   7.703  1.00  0.00    -0.342 OA
ATOM     13  C   UNL     1     -16.099  -5.605   7.180  1.00  0.00    +0.184 C 
ATOM     14  C   UNL     1     -18.343  -6.769   7.378  1.00  0.00    +0.279 C 
ATOM     15  C   UNL     1     -16.813  -6.915   7.538  1.00  0.00    +0.202 C 
BRANCH  14  16
ATOM     16  O   UNL     1     -18.736  -7.089   6.046  1.00  0.00    -0.366 OA
ATOM     17  H   UNL     1     -19.617  -7.492   6.141  1.00  0.00    +0.213 HD
ENDBRANCH  14  16
BRANCH  15  18
ATOM     18  O   UNL     1     -16.316  -7.990   6.730  1.00  0.00    -0.385 OA
ATOM     19  H   UNL     1     -15.733  -7.546   6.078  1.00  0.00    +0.211 HD
ENDBRANCH  15  18
ENDBRANCH   7   8
ENDBRANCH   1   7
BRANCH   2  20
ATOM     20  O   UNL     1     -14.643  -6.730  10.424  1.00  0.00    -0.385 OA
ATOM     21  H   UNL     1     -14.247  -6.395   9.596  1.00  0.00    +0.211 HD
ENDBRANCH   2  20
BRANCH   3  22
ATOM     22  O   UNL     1     -13.836  -6.134  13.014  1.00  0.00    -0.387 OA
ATOM     23  H   UNL     1     -13.159  -6.642  12.519  1.00  0.00    +0.211 HD
ENDBRANCH   3  22
BRANCH   5  24
ATOM     24  C   UNL     1     -17.305  -3.205  12.353  1.00  0.00    +0.220 C 
BRANCH  24  25
ATOM     25  O   UNL     1     -17.928  -1.932  12.198  1.00  0.00    -0.245 OA
BRANCH  25  26
ATOM     26  S   UNL     1     -18.787  -1.668  10.846  1.00  0.00    +0.397 S 
ATOM     27  O   UNL     1     -19.621  -0.499  11.011  1.00  0.00    -0.169 OA
ATOM     28  O   UNL     1     -19.317  -2.934  10.392  1.00  0.00    -0.169 OA
BRANCH  26  29
ATOM     29  O   UNL     1     -17.635  -1.301   9.784  1.00  0.00    -0.264 OA
ATOM     30  H   UNL     1     -18.080  -0.915   9.003  1.00  0.00    +0.236 HD
ENDBRANCH  26  29
ENDBRANCH  25  26
ENDBRANCH  24  25
ENDBRANCH   5  24
BRANCH   4  31
ATOM     31  O   UNL     1     -15.586  -4.520  14.039  1.00  0.00    -0.387 OA
ATOM     32  H   UNL     1     -16.467  -4.761  13.676  1.00  0.00    +0.211 HD
ENDBRANCH   4  31
TORSDOF 11
ENDMDL
