MODEL 1
REMARK VINA RESULT:    -8.011      0.000      0.000
REMARK INTER + INTRA:         -25.860
REMARK INTER:                 -20.188
REMARK INTRA:                  -5.672
REMARK UNBOUND:                -5.672
REMARK SMILES N[C@@H]1[C@@H](O[C@@H]2[C@H](N)[C@H](O[C@@H]3O[C@H](CO)[C@@H](O)[C@H](O[C@@H]4O[C@@H](CO)[C@@H](O)[C@H](O)[C@H]4N)[C@H]3N)O[C@@H](CO[C@H]3O[C@@H](CO)[C@@H](O)[C@H](O)[C@H]3N)[C@H]2O[C@H]2O[C@@H](CO)[C@@H](O)[C@@H](O)[C@H]2N)O[C@H](CO)[C@H](O)[C@H]1O
REMARK SMILES IDX 33 1 47 2 5 3 6 4 8 5 32 6 34 7 35 8 36 9 38 10 41 11 37 12
REMARK SMILES IDX 43 13 45 14 39 15 40 16 42 18 44 20 46 22 48 25 49 26 58 27
REMARK SMILES IDX 50 28 56 29 51 30 54 31 59 32 57 35 52 37 53 38 55 40 4 42
REMARK SMILES IDX 3 43 2 44 60 45 66 46 61 47 64 48 1 49 67 52 62 54 63 55
REMARK SMILES IDX 65 57 9 59 10 60 30 61 11 62 17 63 12 64 15 65 31 66 18 69
REMARK SMILES IDX 19 70 28 71 20 72 26 73 21 74 24 75 29 76 27 79 22 81 23 82
REMARK SMILES IDX 25 84 13 86 14 87 16 89 7 91
REMARK H PARENT 40 17 42 19 44 21 46 23 46 24 59 33 59 34 57 36 53 39 55 41
REMARK H PARENT 1 50 1 51 67 53 63 56 65 58 31 67 31 68 29 77 29 78 27 80
REMARK H PARENT 23 83 25 85 14 88 16 90 7 92 7 93
ROOT
ATOM      1  C   UNL     1      -3.227  -6.991  -5.909  1.00  0.00    +0.179 C 
ATOM      2  C   UNL     1      -4.095  -7.076  -4.636  1.00  0.00    +0.183 C 
ATOM      3  C   UNL     1      -3.232  -6.971  -3.362  1.00  0.00    +0.175 C 
ATOM      4  C   UNL     1      -2.330  -5.720  -3.439  1.00  0.00    +0.140 C 
ATOM      5  C   UNL     1      -1.499  -5.779  -4.752  1.00  0.00    +0.273 C 
ATOM      6  O   UNL     1      -2.360  -5.842  -5.882  1.00  0.00    -0.342 OA
ENDROOT
BRANCH   1   7
ATOM      7  C   UNL     1      -2.451  -8.298  -6.202  1.00  0.00    +0.198 C 
BRANCH   7   8
ATOM      8  O   UNL     1      -2.245  -8.469  -7.607  1.00  0.00    -0.348 OA
BRANCH   8   9
ATOM      9  C   UNL     1      -2.554  -9.797  -8.055  1.00  0.00    +0.270 C 
ATOM     10  C   UNL     1      -3.241 -11.983  -7.287  1.00  0.00    +0.178 C 
ATOM     11  C   UNL     1      -3.329 -12.244  -8.800  1.00  0.00    +0.176 C 
ATOM     12  O   UNL     1      -2.845 -10.647  -6.949  1.00  0.00    -0.342 OA
ATOM     13  C   UNL     1      -4.119 -11.149  -9.532  1.00  0.00    +0.167 C 
ATOM     14  C   UNL     1      -3.761  -9.728  -9.039  1.00  0.00    +0.139 C 
BRANCH  10  15
ATOM     15  C   UNL     1      -4.522 -12.314  -6.505  1.00  0.00    +0.191 C 
BRANCH  15  16
ATOM     16  O   UNL     1      -5.114 -11.146  -5.941  1.00  0.00    -0.394 OA
ATOM     17  H   UNL     1      -5.571 -10.680  -6.665  1.00  0.00    +0.210 HD
ENDBRANCH  15  16
ENDBRANCH  10  15
BRANCH  11  18
ATOM     18  O   UNL     1      -3.866 -13.533  -9.121  1.00  0.00    -0.388 OA
ATOM     19  H   UNL     1      -3.317 -14.198  -8.666  1.00  0.00    +0.211 HD
ENDBRANCH  11  18
BRANCH  13  20
ATOM     20  O   UNL     1      -3.828 -11.265 -10.940  1.00  0.00    -0.388 OA
ATOM     21  H   UNL     1      -3.973 -12.208 -11.149  1.00  0.00    +0.211 HD
ENDBRANCH  13  20
BRANCH  14  22
ATOM     22  N   UNL     1      -4.949  -9.094  -8.392  1.00  0.00    -0.321 NA
ATOM     23  H   UNL     1      -5.569  -8.812  -9.169  1.00  0.00    +0.119 HD
ATOM     24  H   UNL     1      -5.482  -9.862  -7.946  1.00  0.00    +0.119 HD
ENDBRANCH  14  22
ENDBRANCH   8   9
ENDBRANCH   7   8
ENDBRANCH   1   7
BRANCH   2  25
ATOM     25  O   UNL     1      -4.806  -8.327  -4.611  1.00  0.00    -0.342 OA
BRANCH  25  26
ATOM     26  C   UNL     1      -6.214  -8.157  -4.820  1.00  0.00    +0.270 C 
ATOM     27  C   UNL     1      -6.963  -8.789  -3.605  1.00  0.00    +0.139 C 
ATOM     28  O   UNL     1      -6.616  -8.779  -6.038  1.00  0.00    -0.342 OA
ATOM     29  C   UNL     1      -8.501  -8.684  -3.805  1.00  0.00    +0.167 C 
ATOM     30  C   UNL     1      -8.026  -8.757  -6.298  1.00  0.00    +0.178 C 
ATOM     31  C   UNL     1      -8.863  -8.106  -5.178  1.00  0.00    +0.176 C 
BRANCH  27  32
ATOM     32  N   UNL     1      -6.491 -10.171  -3.328  1.00  0.00    -0.321 NA
ATOM     33  H   UNL     1      -6.293 -10.612  -4.233  1.00  0.00    +0.119 HD
ATOM     34  H   UNL     1      -5.572 -10.085  -2.889  1.00  0.00    +0.119 HD
ENDBRANCH  27  32
BRANCH  29  35
ATOM     35  O   UNL     1      -9.185  -9.946  -3.662  1.00  0.00    -0.388 OA
ATOM     36  H   UNL     1      -8.724 -10.393  -2.921  1.00  0.00    +0.211 HD
ENDBRANCH  29  35
BRANCH  30  37
ATOM     37  C   UNL     1      -8.469 -10.178  -6.707  1.00  0.00    +0.191 C 
BRANCH  37  38
ATOM     38  O   UNL     1      -9.705 -10.218  -7.416  1.00  0.00    -0.394 OA
ATOM     39  H   UNL     1      -9.538 -10.684  -8.267  1.00  0.00    +0.210 HD
ENDBRANCH  37  38
ENDBRANCH  30  37
BRANCH  31  40
ATOM     40  O   UNL     1     -10.272  -8.235  -5.392  1.00  0.00    -0.388 OA
ATOM     41  H   UNL     1     -10.481  -7.830  -6.255  1.00  0.00    +0.211 HD
ENDBRANCH  31  40
ENDBRANCH  25  26
ENDBRANCH   2  25
BRANCH   3  42
ATOM     42  O   UNL     1      -4.120  -6.969  -2.223  1.00  0.00    -0.343 OA
BRANCH  42  43
ATOM     43  C   UNL     1      -3.858  -8.002  -1.267  1.00  0.00    +0.270 C 
ATOM     44  C   UNL     1      -2.434  -7.753  -0.703  1.00  0.00    +0.139 C 
ATOM     45  O   UNL     1      -3.964  -9.265  -1.930  1.00  0.00    -0.342 OA
ATOM     46  C   UNL     1      -1.958  -8.949   0.135  1.00  0.00    +0.167 C 
ATOM     47  C   UNL     1      -3.580 -10.398  -1.144  1.00  0.00    +0.178 C 
ATOM     48  C   UNL     1      -2.129 -10.251  -0.651  1.00  0.00    +0.176 C 
BRANCH  44  49
ATOM     49  N   UNL     1      -2.373  -6.513   0.108  1.00  0.00    -0.321 NA
ATOM     50  H   UNL     1      -2.176  -6.775   1.075  1.00  0.00    +0.119 HD
ATOM     51  H   UNL     1      -3.312  -6.102   0.099  1.00  0.00    +0.119 HD
ENDBRANCH  44  49
BRANCH  46  52
ATOM     52  O   UNL     1      -0.569  -8.782   0.473  1.00  0.00    -0.388 OA
ATOM     53  H   UNL     1      -0.564  -8.147   1.218  1.00  0.00    +0.211 HD
ENDBRANCH  46  52
BRANCH  47  54
ATOM     54  C   UNL     1      -4.611 -10.701  -0.040  1.00  0.00    +0.191 C 
BRANCH  54  55
ATOM     55  O   UNL     1      -4.018 -10.576   1.248  1.00  0.00    -0.394 OA
ATOM     56  H   UNL     1      -4.384  -9.766   1.654  1.00  0.00    +0.210 HD
ENDBRANCH  54  55
ENDBRANCH  47  54
BRANCH  48  57
ATOM     57  O   UNL     1      -1.667 -11.342   0.155  1.00  0.00    -0.388 OA
ATOM     58  H   UNL     1      -1.074 -11.894  -0.402  1.00  0.00    +0.211 HD
ENDBRANCH  48  57
ENDBRANCH  42  43
ENDBRANCH   3  42
BRANCH   5  59
ATOM     59  O   UNL     1      -0.689  -4.602  -4.809  1.00  0.00    -0.320 OA
BRANCH  59  60
ATOM     60  C   UNL     1       0.522  -4.764  -5.549  1.00  0.00    +0.273 C 
ATOM     61  C   UNL     1       1.036  -3.406  -6.113  1.00  0.00    +0.140 C 
ATOM     62  O   UNL     1       1.464  -5.310  -4.614  1.00  0.00    -0.342 OA
ATOM     63  C   UNL     1       2.447  -3.600  -6.707  1.00  0.00    +0.174 C 
ATOM     64  C   UNL     1       2.752  -5.567  -5.197  1.00  0.00    +0.178 C 
ATOM     65  C   UNL     1       3.384  -4.268  -5.696  1.00  0.00    +0.176 C 
BRANCH  61  66
ATOM     66  N   UNL     1       0.154  -2.825  -7.144  1.00  0.00    -0.321 NA
ATOM     67  H   UNL     1      -0.756  -3.302  -7.105  1.00  0.00    +0.119 HD
ATOM     68  H   UNL     1       0.541  -3.057  -8.072  1.00  0.00    +0.119 HD
ENDBRANCH  61  66
BRANCH  63  69
ATOM     69  O   UNL     1       3.030  -2.325  -7.043  1.00  0.00    -0.343 OA
BRANCH  69  70
ATOM     70  C   UNL     1       2.911  -1.373  -5.983  1.00  0.00    +0.270 C 
ATOM     71  C   UNL     1       4.284  -0.668  -5.770  1.00  0.00    +0.139 C 
ATOM     72  O   UNL     1       1.841  -0.471  -6.303  1.00  0.00    -0.342 OA
ATOM     73  C   UNL     1       4.009   0.737  -5.224  1.00  0.00    +0.167 C 
ATOM     74  C   UNL     1       2.269   0.654  -7.087  1.00  0.00    +0.178 C 
ATOM     75  C   UNL     1       3.211   1.557  -6.252  1.00  0.00    +0.176 C 
BRANCH  71  76
ATOM     76  N   UNL     1       5.210  -1.429  -4.891  1.00  0.00    -0.321 NA
ATOM     77  H   UNL     1       5.094  -2.416  -5.150  1.00  0.00    +0.119 HD
ATOM     78  H   UNL     1       6.176  -1.215  -5.185  1.00  0.00    +0.119 HD
ENDBRANCH  71  76
BRANCH  73  79
ATOM     79  O   UNL     1       5.239   1.418  -4.924  1.00  0.00    -0.388 OA
ATOM     80  H   UNL     1       5.017   2.025  -4.191  1.00  0.00    +0.211 HD
ENDBRANCH  73  79
BRANCH  74  81
ATOM     81  C   UNL     1       1.022   1.369  -7.624  1.00  0.00    +0.191 C 
BRANCH  81  82
ATOM     82  O   UNL     1       1.331   2.708  -8.024  1.00  0.00    -0.394 OA
ATOM     83  H   UNL     1       0.496   3.112  -8.321  1.00  0.00    +0.210 HD
ENDBRANCH  81  82
ENDBRANCH  74  81
BRANCH  75  84
ATOM     84  O   UNL     1       2.563   2.610  -5.526  1.00  0.00    -0.388 OA
ATOM     85  H   UNL     1       2.886   2.561  -4.598  1.00  0.00    +0.211 HD
ENDBRANCH  75  84
ENDBRANCH  69  70
ENDBRANCH  63  69
BRANCH  64  86
ATOM     86  C   UNL     1       3.612  -6.232  -4.119  1.00  0.00    +0.191 C 
BRANCH  86  87
ATOM     87  O   UNL     1       2.871  -7.297  -3.512  1.00  0.00    -0.394 OA
ATOM     88  H   UNL     1       3.465  -7.646  -2.817  1.00  0.00    +0.210 HD
ENDBRANCH  86  87
ENDBRANCH  64  86
BRANCH  65  89
ATOM     89  O   UNL     1       4.648  -4.529  -6.319  1.00  0.00    -0.388 OA
ATOM     90  H   UNL     1       4.459  -4.608  -7.276  1.00  0.00    +0.211 HD
ENDBRANCH  65  89
ENDBRANCH  59  60
ENDBRANCH   5  59
BRANCH   4  91
ATOM     91  N   UNL     1      -3.134  -4.477  -3.326  1.00  0.00    -0.321 NA
ATOM     92  H   UNL     1      -4.105  -4.715  -3.541  1.00  0.00    +0.119 HD
ATOM     93  H   UNL     1      -2.809  -3.830  -4.048  1.00  0.00    +0.119 HD
ENDBRANCH   4  91
TORSDOF 36
ENDMDL
MODEL 2
REMARK VINA RESULT:    -7.716      8.969     19.125
REMARK INTER + INTRA:         -25.115
REMARK INTER:                 -20.135
REMARK INTRA:                  -4.981
REMARK UNBOUND:                -5.672
REMARK SMILES N[C@@H]1[C@@H](O[C@@H]2[C@H](N)[C@H](O[C@@H]3O[C@H](CO)[C@@H](O)[C@H](O[C@@H]4O[C@@H](CO)[C@@H](O)[C@H](O)[C@H]4N)[C@H]3N)O[C@@H](CO[C@H]3O[C@@H](CO)[C@@H](O)[C@H](O)[C@H]3N)[C@H]2O[C@H]2O[C@@H](CO)[C@@H](O)[C@@H](O)[C@H]2N)O[C@H](CO)[C@H](O)[C@H]1O
REMARK SMILES IDX 33 1 47 2 5 3 6 4 8 5 32 6 34 7 35 8 36 9 38 10 41 11 37 12
REMARK SMILES IDX 43 13 45 14 39 15 40 16 42 18 44 20 46 22 48 25 49 26 58 27
REMARK SMILES IDX 50 28 56 29 51 30 54 31 59 32 57 35 52 37 53 38 55 40 4 42
REMARK SMILES IDX 3 43 2 44 60 45 66 46 61 47 64 48 1 49 67 52 62 54 63 55
REMARK SMILES IDX 65 57 9 59 10 60 30 61 11 62 17 63 12 64 15 65 31 66 18 69
REMARK SMILES IDX 19 70 28 71 20 72 26 73 21 74 24 75 29 76 27 79 22 81 23 82
REMARK SMILES IDX 25 84 13 86 14 87 16 89 7 91
REMARK H PARENT 40 17 42 19 44 21 46 23 46 24 59 33 59 34 57 36 53 39 55 41
REMARK H PARENT 1 50 1 51 67 53 63 56 65 58 31 67 31 68 29 77 29 78 27 80
REMARK H PARENT 23 83 25 85 14 88 16 90 7 92 7 93
ROOT
ATOM      1  C   UNL     1       6.466   8.148  -5.391  1.00  0.00    +0.179 C 
ATOM      2  C   UNL     1       6.296   9.321  -4.404  1.00  0.00    +0.183 C 
ATOM      3  C   UNL     1       4.930  10.013  -4.586  1.00  0.00    +0.175 C 
ATOM      4  C   UNL     1       3.797   8.964  -4.534  1.00  0.00    +0.140 C 
ATOM      5  C   UNL     1       4.084   7.862  -5.592  1.00  0.00    +0.273 C 
ATOM      6  O   UNL     1       5.342   7.249  -5.342  1.00  0.00    -0.342 OA
ENDROOT
BRANCH   1   7
ATOM      7  C   UNL     1       6.776   8.611  -6.836  1.00  0.00    +0.198 C 
BRANCH   7   8
ATOM      8  O   UNL     1       6.266   7.679  -7.795  1.00  0.00    -0.348 OA
BRANCH   8   9
ATOM      9  C   UNL     1       6.232   8.217  -9.126  1.00  0.00    +0.270 C 
ATOM     10  C   UNL     1       6.100   7.594 -11.457  1.00  0.00    +0.178 C 
ATOM     11  C   UNL     1       5.976   9.117 -11.628  1.00  0.00    +0.176 C 
ATOM     12  O   UNL     1       6.209   7.169 -10.092  1.00  0.00    -0.342 OA
ATOM     13  C   UNL     1       4.917   9.722 -10.695  1.00  0.00    +0.167 C 
ATOM     14  C   UNL     1       4.980   9.134  -9.266  1.00  0.00    +0.139 C 
BRANCH  10  15
ATOM     15  C   UNL     1       4.977   6.782 -12.122  1.00  0.00    +0.191 C 
BRANCH  15  16
ATOM     16  O   UNL     1       3.959   6.426 -11.190  1.00  0.00    -0.394 OA
ATOM     17  H   UNL     1       4.199   6.831 -10.337  1.00  0.00    +0.210 HD
ENDBRANCH  15  16
ENDBRANCH  10  15
BRANCH  11  18
ATOM     18  O   UNL     1       5.719   9.514 -12.981  1.00  0.00    -0.388 OA
ATOM     19  H   UNL     1       6.530   9.338 -13.494  1.00  0.00    +0.211 HD
ENDBRANCH  11  18
BRANCH  13  20
ATOM     20  O   UNL     1       5.135  11.146 -10.647  1.00  0.00    -0.388 OA
ATOM     21  H   UNL     1       4.772  11.427  -9.785  1.00  0.00    +0.211 HD
ENDBRANCH  13  20
BRANCH  14  22
ATOM     22  N   UNL     1       3.724   8.383  -8.963  1.00  0.00    -0.321 NA
ATOM     23  H   UNL     1       3.867   7.438  -9.354  1.00  0.00    +0.119 HD
ATOM     24  H   UNL     1       3.728   8.209  -7.943  1.00  0.00    +0.119 HD
ENDBRANCH  14  22
ENDBRANCH   8   9
ENDBRANCH   7   8
ENDBRANCH   1   7
BRANCH   2  25
ATOM     25  O   UNL     1       7.338  10.292  -4.614  1.00  0.00    -0.342 OA
BRANCH  25  26
ATOM     26  C   UNL     1       7.312  10.841  -5.937  1.00  0.00    +0.270 C 
ATOM     27  C   UNL     1       8.786  10.979  -6.433  1.00  0.00    +0.139 C 
ATOM     28  O   UNL     1       6.661  12.108  -5.939  1.00  0.00    -0.342 OA
ATOM     29  C   UNL     1       8.823  11.623  -7.847  1.00  0.00    +0.167 C 
ATOM     30  C   UNL     1       6.667  12.797  -7.197  1.00  0.00    +0.178 C 
ATOM     31  C   UNL     1       7.429  12.057  -8.316  1.00  0.00    +0.176 C 
BRANCH  27  32
ATOM     32  N   UNL     1       9.637  11.679  -5.435  1.00  0.00    -0.321 NA
ATOM     33  H   UNL     1       9.831  12.616  -5.805  1.00  0.00    +0.119 HD
ATOM     34  H   UNL     1       9.048  11.854  -4.618  1.00  0.00    +0.119 HD
ENDBRANCH  27  32
BRANCH  29  35
ATOM     35  O   UNL     1       9.695  12.770  -7.930  1.00  0.00    -0.388 OA
ATOM     36  H   UNL     1       9.250  13.372  -8.563  1.00  0.00    +0.211 HD
ENDBRANCH  29  35
BRANCH  30  37
ATOM     37  C   UNL     1       7.110  14.254  -6.954  1.00  0.00    +0.191 C 
BRANCH  37  38
ATOM     38  O   UNL     1       7.994  14.415  -5.847  1.00  0.00    -0.394 OA
ATOM     39  H   UNL     1       8.665  15.088  -6.105  1.00  0.00    +0.210 HD
ENDBRANCH  37  38
ENDBRANCH  30  37
BRANCH  31  40
ATOM     40  O   UNL     1       7.551  12.833  -9.512  1.00  0.00    -0.388 OA
ATOM     41  H   UNL     1       8.484  12.801  -9.795  1.00  0.00    +0.211 HD
ENDBRANCH  31  40
ENDBRANCH  25  26
ENDBRANCH   2  25
BRANCH   3  42
ATOM     42  O   UNL     1       4.812  11.036  -3.574  1.00  0.00    -0.343 OA
BRANCH  42  43
ATOM     43  C   UNL     1       3.781  11.999  -3.822  1.00  0.00    +0.270 C 
ATOM     44  C   UNL     1       4.245  13.338  -3.191  1.00  0.00    +0.139 C 
ATOM     45  O   UNL     1       2.567  11.517  -3.237  1.00  0.00    -0.342 OA
ATOM     46  C   UNL     1       3.101  14.363  -3.175  1.00  0.00    +0.167 C 
ATOM     47  C   UNL     1       1.473  12.439  -3.266  1.00  0.00    +0.178 C 
ATOM     48  C   UNL     1       1.846  13.750  -2.552  1.00  0.00    +0.176 C 
BRANCH  44  49
ATOM     49  N   UNL     1       5.418  13.903  -3.902  1.00  0.00    -0.321 NA
ATOM     50  H   UNL     1       5.086  14.359  -4.752  1.00  0.00    +0.119 HD
ATOM     51  H   UNL     1       5.998  13.112  -4.198  1.00  0.00    +0.119 HD
ENDBRANCH  44  49
BRANCH  46  52
ATOM     52  O   UNL     1       3.494  15.516  -2.408  1.00  0.00    -0.388 OA
ATOM     53  H   UNL     1       4.315  15.248  -1.949  1.00  0.00    +0.211 HD
ENDBRANCH  46  52
BRANCH  47  54
ATOM     54  C   UNL     1       0.914  12.615  -4.691  1.00  0.00    +0.191 C 
BRANCH  54  55
ATOM     55  O   UNL     1      -0.508  12.694  -4.666  1.00  0.00    -0.394 OA
ATOM     56  H   UNL     1      -0.757  13.074  -3.801  1.00  0.00    +0.210 HD
ENDBRANCH  54  55
ENDBRANCH  47  54
BRANCH  48  57
ATOM     57  O   UNL     1       0.805  14.734  -2.544  1.00  0.00    -0.388 OA
ATOM     58  H   UNL     1       0.145  14.476  -3.227  1.00  0.00    +0.211 HD
ENDBRANCH  48  57
ENDBRANCH  42  43
ENDBRANCH   3  42
BRANCH   5  59
ATOM     59  O   UNL     1       3.035   6.894  -5.510  1.00  0.00    -0.320 OA
BRANCH  59  60
ATOM     60  C   UNL     1       3.140   5.837  -6.465  1.00  0.00    +0.273 C 
ATOM     61  C   UNL     1       3.007   4.440  -5.791  1.00  0.00    +0.140 C 
ATOM     62  O   UNL     1       2.064   6.056  -7.389  1.00  0.00    -0.342 OA
ATOM     63  C   UNL     1       2.906   3.353  -6.882  1.00  0.00    +0.174 C 
ATOM     64  C   UNL     1       2.028   5.089  -8.451  1.00  0.00    +0.178 C 
ATOM     65  C   UNL     1       1.801   3.685  -7.890  1.00  0.00    +0.176 C 
BRANCH  61  66
ATOM     66  N   UNL     1       4.127   4.112  -4.887  1.00  0.00    -0.321 NA
ATOM     67  H   UNL     1       4.332   3.107  -4.969  1.00  0.00    +0.119 HD
ATOM     68  H   UNL     1       3.810   4.245  -3.914  1.00  0.00    +0.119 HD
ENDBRANCH  61  66
BRANCH  63  69
ATOM     69  O   UNL     1       2.570   2.080  -6.294  1.00  0.00    -0.343 OA
BRANCH  69  70
ATOM     70  C   UNL     1       3.377   1.013  -6.800  1.00  0.00    +0.270 C 
ATOM     71  C   UNL     1       4.274   0.461  -5.652  1.00  0.00    +0.139 C 
ATOM     72  O   UNL     1       2.511   0.029  -7.383  1.00  0.00    -0.342 OA
ATOM     73  C   UNL     1       4.552  -1.017  -5.946  1.00  0.00    +0.167 C 
ATOM     74  C   UNL     1       2.050  -0.947  -6.434  1.00  0.00    +0.178 C 
ATOM     75  C   UNL     1       3.236  -1.814  -5.943  1.00  0.00    +0.176 C 
BRANCH  71  76
ATOM     76  N   UNL     1       5.532   1.230  -5.461  1.00  0.00    -0.321 NA
ATOM     77  H   UNL     1       5.452   2.052  -6.071  1.00  0.00    +0.119 HD
ATOM     78  H   UNL     1       5.517   1.634  -4.511  1.00  0.00    +0.119 HD
ENDBRANCH  71  76
BRANCH  73  79
ATOM     79  O   UNL     1       5.447  -1.573  -4.969  1.00  0.00    -0.388 OA
ATOM     80  H   UNL     1       4.883  -2.135  -4.403  1.00  0.00    +0.211 HD
ENDBRANCH  73  79
BRANCH  74  81
ATOM     81  C   UNL     1       0.910  -1.746  -7.081  1.00  0.00    +0.191 C 
BRANCH  81  82
ATOM     82  O   UNL     1       1.334  -2.340  -8.311  1.00  0.00    -0.394 OA
ATOM     83  H   UNL     1       0.752  -1.989  -9.009  1.00  0.00    +0.210 HD
ENDBRANCH  81  82
ENDBRANCH  74  81
BRANCH  75  84
ATOM     84  O   UNL     1       3.475  -3.009  -6.699  1.00  0.00    -0.388 OA
ATOM     85  H   UNL     1       4.444  -3.179  -6.670  1.00  0.00    +0.211 HD
ENDBRANCH  75  84
ENDBRANCH  69  70
ENDBRANCH  63  69
BRANCH  64  86
ATOM     86  C   UNL     1       0.902   5.502  -9.402  1.00  0.00    +0.191 C 
BRANCH  86  87
ATOM     87  O   UNL     1       1.210   6.779  -9.974  1.00  0.00    -0.394 OA
ATOM     88  H   UNL     1       2.171   6.743 -10.155  1.00  0.00    +0.210 HD
ENDBRANCH  86  87
ENDBRANCH  64  86
BRANCH  65  89
ATOM     89  O   UNL     1       1.812   2.713  -8.943  1.00  0.00    -0.388 OA
ATOM     90  H   UNL     1       2.756   2.547  -9.140  1.00  0.00    +0.211 HD
ENDBRANCH  65  89
ENDBRANCH  59  60
ENDBRANCH   5  59
BRANCH   4  91
ATOM     91  N   UNL     1       3.644   8.416  -3.163  1.00  0.00    -0.321 NA
ATOM     92  H   UNL     1       4.532   8.551  -2.673  1.00  0.00    +0.119 HD
ATOM     93  H   UNL     1       3.490   7.408  -3.247  1.00  0.00    +0.119 HD
ENDBRANCH   4  91
TORSDOF 36
ENDMDL
MODEL 3
REMARK VINA RESULT:    -7.628      3.884      6.984
REMARK INTER + INTRA:         -24.894
REMARK INTER:                 -18.316
REMARK INTRA:                  -6.578
REMARK UNBOUND:                -5.672
REMARK SMILES N[C@@H]1[C@@H](O[C@@H]2[C@H](N)[C@H](O[C@@H]3O[C@H](CO)[C@@H](O)[C@H](O[C@@H]4O[C@@H](CO)[C@@H](O)[C@H](O)[C@H]4N)[C@H]3N)O[C@@H](CO[C@H]3O[C@@H](CO)[C@@H](O)[C@H](O)[C@H]3N)[C@H]2O[C@H]2O[C@@H](CO)[C@@H](O)[C@@H](O)[C@H]2N)O[C@H](CO)[C@H](O)[C@H]1O
REMARK SMILES IDX 33 1 47 2 5 3 6 4 8 5 32 6 34 7 35 8 36 9 38 10 41 11 37 12
REMARK SMILES IDX 43 13 45 14 39 15 40 16 42 18 44 20 46 22 48 25 49 26 58 27
REMARK SMILES IDX 50 28 56 29 51 30 54 31 59 32 57 35 52 37 53 38 55 40 4 42
REMARK SMILES IDX 3 43 2 44 60 45 66 46 61 47 64 48 1 49 67 52 62 54 63 55
REMARK SMILES IDX 65 57 9 59 10 60 30 61 11 62 17 63 12 64 15 65 31 66 18 69
REMARK SMILES IDX 19 70 28 71 20 72 26 73 21 74 24 75 29 76 27 79 22 81 23 82
REMARK SMILES IDX 25 84 13 86 14 87 16 89 7 91
REMARK H PARENT 40 17 42 19 44 21 46 23 46 24 59 33 59 34 57 36 53 39 55 41
REMARK H PARENT 1 50 1 51 67 53 63 56 65 58 31 67 31 68 29 77 29 78 27 80
REMARK H PARENT 23 83 25 85 14 88 16 90 7 92 7 93
ROOT
ATOM      1  C   UNL     1      -4.769  -8.304  -6.015  1.00  0.00    +0.179 C 
ATOM      2  C   UNL     1      -5.977  -9.254  -5.880  1.00  0.00    +0.183 C 
ATOM      3  C   UNL     1      -6.172  -9.708  -4.419  1.00  0.00    +0.175 C 
ATOM      4  C   UNL     1      -6.219  -8.478  -3.487  1.00  0.00    +0.140 C 
ATOM      5  C   UNL     1      -4.935  -7.629  -3.710  1.00  0.00    +0.273 C 
ATOM      6  O   UNL     1      -4.840  -7.221  -5.069  1.00  0.00    -0.342 OA
ENDROOT
BRANCH   1   7
ATOM      7  C   UNL     1      -3.409  -9.041  -5.953  1.00  0.00    +0.198 C 
BRANCH   7   8
ATOM      8  O   UNL     1      -2.510  -8.544  -6.949  1.00  0.00    -0.348 OA
BRANCH   8   9
ATOM      9  C   UNL     1      -1.544  -9.522  -7.362  1.00  0.00    +0.270 C 
ATOM     10  C   UNL     1      -0.978 -11.866  -7.197  1.00  0.00    +0.178 C 
ATOM     11  C   UNL     1       0.089 -11.453  -8.226  1.00  0.00    +0.176 C 
ATOM     12  O   UNL     1      -1.840 -10.794  -6.791  1.00  0.00    -0.342 OA
ATOM     13  C   UNL     1      -0.509 -10.650  -9.391  1.00  0.00    +0.167 C 
ATOM     14  C   UNL     1      -1.538  -9.597  -8.919  1.00  0.00    +0.139 C 
BRANCH  10  15
ATOM     15  C   UNL     1      -1.859 -13.050  -7.629  1.00  0.00    +0.191 C 
BRANCH  15  16
ATOM     16  O   UNL     1      -1.152 -14.286  -7.564  1.00  0.00    -0.394 OA
ATOM     17  H   UNL     1      -0.865 -14.499  -8.470  1.00  0.00    +0.210 HD
ENDBRANCH  15  16
ENDBRANCH  10  15
BRANCH  11  18
ATOM     18  O   UNL     1       0.844 -12.561  -8.732  1.00  0.00    -0.388 OA
ATOM     19  H   UNL     1       0.206 -13.240  -9.021  1.00  0.00    +0.211 HD
ENDBRANCH  11  18
BRANCH  13  20
ATOM     20  O   UNL     1       0.579  -9.997 -10.077  1.00  0.00    -0.388 OA
ATOM     21  H   UNL     1       1.351 -10.576  -9.930  1.00  0.00    +0.211 HD
ENDBRANCH  13  20
BRANCH  14  22
ATOM     22  N   UNL     1      -2.895  -9.931  -9.449  1.00  0.00    -0.321 NA
ATOM     23  H   UNL     1      -3.381  -9.026  -9.553  1.00  0.00    +0.119 HD
ATOM     24  H   UNL     1      -2.758 -10.228 -10.432  1.00  0.00    +0.119 HD
ENDBRANCH  14  22
ENDBRANCH   8   9
ENDBRANCH   7   8
ENDBRANCH   1   7
BRANCH   2  25
ATOM     25  O   UNL     1      -5.780 -10.418  -6.704  1.00  0.00    -0.342 OA
BRANCH  25  26
ATOM     26  C   UNL     1      -6.741 -10.505  -7.763  1.00  0.00    +0.270 C 
ATOM     27  C   UNL     1      -6.595 -11.906  -8.436  1.00  0.00    +0.139 C 
ATOM     28  O   UNL     1      -6.529  -9.465  -8.715  1.00  0.00    -0.342 OA
ATOM     29  C   UNL     1      -7.578 -12.036  -9.633  1.00  0.00    +0.167 C 
ATOM     30  C   UNL     1      -7.374  -9.516  -9.873  1.00  0.00    +0.178 C 
ATOM     31  C   UNL     1      -8.330 -10.727  -9.903  1.00  0.00    +0.176 C 
BRANCH  27  32
ATOM     32  N   UNL     1      -5.181 -12.199  -8.791  1.00  0.00    -0.321 NA
ATOM     33  H   UNL     1      -5.175 -13.085  -9.308  1.00  0.00    +0.119 HD
ATOM     34  H   UNL     1      -4.903 -11.504  -9.488  1.00  0.00    +0.119 HD
ENDBRANCH  27  32
BRANCH  29  35
ATOM     35  O   UNL     1      -6.936 -12.439 -10.860  1.00  0.00    -0.388 OA
ATOM     36  H   UNL     1      -6.029 -12.073 -10.795  1.00  0.00    +0.211 HD
ENDBRANCH  29  35
BRANCH  30  37
ATOM     37  C   UNL     1      -6.493  -9.345 -11.128  1.00  0.00    +0.191 C 
BRANCH  37  38
ATOM     38  O   UNL     1      -5.214  -9.969 -11.028  1.00  0.00    -0.394 OA
ATOM     39  H   UNL     1      -5.369 -10.935 -10.918  1.00  0.00    +0.210 HD
ENDBRANCH  37  38
ENDBRANCH  30  37
BRANCH  31  40
ATOM     40  O   UNL     1      -9.048 -10.836 -11.135  1.00  0.00    -0.388 OA
ATOM     41  H   UNL     1      -8.656 -11.570 -11.645  1.00  0.00    +0.211 HD
ENDBRANCH  31  40
ENDBRANCH  25  26
ENDBRANCH   2  25
BRANCH   3  42
ATOM     42  O   UNL     1      -7.367 -10.518  -4.361  1.00  0.00    -0.343 OA
BRANCH  42  43
ATOM     43  C   UNL     1      -7.310 -11.590  -3.414  1.00  0.00    +0.270 C 
ATOM     44  C   UNL     1      -7.865 -11.044  -2.071  1.00  0.00    +0.139 C 
ATOM     45  O   UNL     1      -5.950 -12.019  -3.302  1.00  0.00    -0.342 OA
ATOM     46  C   UNL     1      -7.606 -12.035  -0.927  1.00  0.00    +0.167 C 
ATOM     47  C   UNL     1      -5.701 -12.987  -2.278  1.00  0.00    +0.178 C 
ATOM     48  C   UNL     1      -6.133 -12.448  -0.902  1.00  0.00    +0.176 C 
BRANCH  44  49
ATOM     49  N   UNL     1      -9.315 -10.741  -2.158  1.00  0.00    -0.321 NA
ATOM     50  H   UNL     1      -9.520 -10.443  -3.112  1.00  0.00    +0.119 HD
ATOM     51  H   UNL     1      -9.488  -9.933  -1.553  1.00  0.00    +0.119 HD
ENDBRANCH  44  49
BRANCH  46  52
ATOM     52  O   UNL     1      -7.944 -11.422   0.331  1.00  0.00    -0.388 OA
ATOM     53  H   UNL     1      -7.583 -10.514   0.276  1.00  0.00    +0.211 HD
ENDBRANCH  46  52
BRANCH  47  54
ATOM     54  C   UNL     1      -6.282 -14.366  -2.644  1.00  0.00    +0.191 C 
BRANCH  54  55
ATOM     55  O   UNL     1      -5.780 -14.803  -3.903  1.00  0.00    -0.394 OA
ATOM     56  H   UNL     1      -5.471 -15.723  -3.783  1.00  0.00    +0.210 HD
ENDBRANCH  54  55
ENDBRANCH  47  54
BRANCH  48  57
ATOM     57  O   UNL     1      -5.926 -13.362   0.180  1.00  0.00    -0.388 OA
ATOM     58  H   UNL     1      -5.086 -13.111   0.627  1.00  0.00    +0.211 HD
ENDBRANCH  48  57
ENDBRANCH  42  43
ENDBRANCH   3  42
BRANCH   5  59
ATOM     59  O   UNL     1      -5.012  -6.488  -2.853  1.00  0.00    -0.320 OA
BRANCH  59  60
ATOM     60  C   UNL     1      -3.743  -6.010  -2.404  1.00  0.00    +0.273 C 
ATOM     61  C   UNL     1      -2.864  -7.162  -1.834  1.00  0.00    +0.140 C 
ATOM     62  O   UNL     1      -3.126  -5.433  -3.565  1.00  0.00    -0.342 OA
ATOM     63  C   UNL     1      -1.438  -6.636  -1.571  1.00  0.00    +0.174 C 
ATOM     64  C   UNL     1      -1.833  -4.869  -3.294  1.00  0.00    +0.178 C 
ATOM     65  C   UNL     1      -0.865  -5.952  -2.817  1.00  0.00    +0.176 C 
BRANCH  61  66
ATOM     66  N   UNL     1      -3.398  -7.748  -0.588  1.00  0.00    -0.321 NA
ATOM     67  H   UNL     1      -3.788  -6.992  -0.009  1.00  0.00    +0.119 HD
ATOM     68  H   UNL     1      -2.610  -8.127  -0.042  1.00  0.00    +0.119 HD
ENDBRANCH  61  66
BRANCH  63  69
ATOM     69  O   UNL     1      -0.552  -7.726  -1.245  1.00  0.00    -0.343 OA
BRANCH  69  70
ATOM     70  C   UNL     1      -0.451  -8.684  -2.302  1.00  0.00    +0.270 C 
ATOM     71  C   UNL     1       1.028  -9.158  -2.423  1.00  0.00    +0.139 C 
ATOM     72  O   UNL     1      -1.381  -9.745  -2.040  1.00  0.00    -0.342 OA
ATOM     73  C   UNL     1       1.016 -10.588  -2.973  1.00  0.00    +0.167 C 
ATOM     74  C   UNL     1      -0.827 -10.788  -1.222  1.00  0.00    +0.178 C 
ATOM     75  C   UNL     1       0.297 -11.528  -1.989  1.00  0.00    +0.176 C 
BRANCH  71  76
ATOM     76  N   UNL     1       1.873  -8.257  -3.251  1.00  0.00    -0.321 NA
ATOM     77  H   UNL     1       1.518  -8.344  -4.210  1.00  0.00    +0.119 HD
ATOM     78  H   UNL     1       1.643  -7.284  -2.997  1.00  0.00    +0.119 HD
ENDBRANCH  71  76
BRANCH  73  79
ATOM     79  O   UNL     1       2.355 -11.063  -3.192  1.00  0.00    -0.388 OA
ATOM     80  H   UNL     1       2.742 -11.143  -2.298  1.00  0.00    +0.211 HD
ENDBRANCH  73  79
BRANCH  74  81
ATOM     81  C   UNL     1      -1.974 -11.695  -0.756  1.00  0.00    +0.191 C 
BRANCH  81  82
ATOM     82  O   UNL     1      -2.887 -10.978   0.081  1.00  0.00    -0.394 OA
ATOM     83  H   UNL     1      -3.061 -10.127  -0.359  1.00  0.00    +0.210 HD
ENDBRANCH  81  82
ENDBRANCH  74  81
BRANCH  75  84
ATOM     84  O   UNL     1      -0.127 -12.670  -2.745  1.00  0.00    -0.388 OA
ATOM     85  H   UNL     1      -0.755 -13.174  -2.179  1.00  0.00    +0.211 HD
ENDBRANCH  75  84
ENDBRANCH  69  70
ENDBRANCH  63  69
BRANCH  64  86
ATOM     86  C   UNL     1      -1.346  -4.211  -4.588  1.00  0.00    +0.191 C 
BRANCH  86  87
ATOM     87  O   UNL     1      -2.412  -4.198  -5.543  1.00  0.00    -0.394 OA
ATOM     88  H   UNL     1      -3.191  -3.889  -5.040  1.00  0.00    +0.210 HD
ENDBRANCH  86  87
ENDBRANCH  64  86
BRANCH  65  89
ATOM     89  O   UNL     1       0.412  -5.383  -2.502  1.00  0.00    -0.388 OA
ATOM     90  H   UNL     1       0.428  -5.292  -1.527  1.00  0.00    +0.211 HD
ENDBRANCH  65  89
ENDBRANCH  59  60
ENDBRANCH   5  59
BRANCH   4  91
ATOM     91  N   UNL     1      -7.464  -7.699  -3.698  1.00  0.00    -0.321 NA
ATOM     92  H   UNL     1      -7.492  -7.417  -4.681  1.00  0.00    +0.119 HD
ATOM     93  H   UNL     1      -7.396  -6.846  -3.137  1.00  0.00    +0.119 HD
ENDBRANCH   4  91
TORSDOF 36
ENDMDL
MODEL 4
REMARK VINA RESULT:    -7.225      9.269     18.954
REMARK INTER + INTRA:         -23.879
REMARK INTER:                 -18.103
REMARK INTRA:                  -5.776
REMARK UNBOUND:                -5.672
REMARK SMILES N[C@@H]1[C@@H](O[C@@H]2[C@H](N)[C@H](O[C@@H]3O[C@H](CO)[C@@H](O)[C@H](O[C@@H]4O[C@@H](CO)[C@@H](O)[C@H](O)[C@H]4N)[C@H]3N)O[C@@H](CO[C@H]3O[C@@H](CO)[C@@H](O)[C@H](O)[C@H]3N)[C@H]2O[C@H]2O[C@@H](CO)[C@@H](O)[C@@H](O)[C@H]2N)O[C@H](CO)[C@H](O)[C@H]1O
REMARK SMILES IDX 33 1 47 2 5 3 6 4 8 5 32 6 34 7 35 8 36 9 38 10 41 11 37 12
REMARK SMILES IDX 43 13 45 14 39 15 40 16 42 18 44 20 46 22 48 25 49 26 58 27
REMARK SMILES IDX 50 28 56 29 51 30 54 31 59 32 57 35 52 37 53 38 55 40 4 42
REMARK SMILES IDX 3 43 2 44 60 45 66 46 61 47 64 48 1 49 67 52 62 54 63 55
REMARK SMILES IDX 65 57 9 59 10 60 30 61 11 62 17 63 12 64 15 65 31 66 18 69
REMARK SMILES IDX 19 70 28 71 20 72 26 73 21 74 24 75 29 76 27 79 22 81 23 82
REMARK SMILES IDX 25 84 13 86 14 87 16 89 7 91
REMARK H PARENT 40 17 42 19 44 21 46 23 46 24 59 33 59 34 57 36 53 39 55 41
REMARK H PARENT 1 50 1 51 67 53 63 56 65 58 31 67 31 68 29 77 29 78 27 80
REMARK H PARENT 23 83 25 85 14 88 16 90 7 92 7 93
ROOT
ATOM      1  C   UNL     1       4.446   8.038 -10.609  1.00  0.00    +0.179 C 
ATOM      2  C   UNL     1       5.028   7.668 -11.989  1.00  0.00    +0.183 C 
ATOM      3  C   UNL     1       5.578   6.227 -11.997  1.00  0.00    +0.175 C 
ATOM      4  C   UNL     1       4.503   5.250 -11.474  1.00  0.00    +0.140 C 
ATOM      5  C   UNL     1       4.028   5.729 -10.073  1.00  0.00    +0.273 C 
ATOM      6  O   UNL     1       3.506   7.049 -10.150  1.00  0.00    -0.342 OA
ENDROOT
BRANCH   1   7
ATOM      7  C   UNL     1       5.537   8.337  -9.552  1.00  0.00    +0.198 C 
BRANCH   7   8
ATOM      8  O   UNL     1       5.364   9.642  -8.991  1.00  0.00    -0.348 OA
BRANCH   8   9
ATOM      9  C   UNL     1       6.220   9.879  -7.863  1.00  0.00    +0.270 C 
ATOM     10  C   UNL     1       8.052   8.937  -6.598  1.00  0.00    +0.178 C 
ATOM     11  C   UNL     1       7.985  10.308  -5.903  1.00  0.00    +0.176 C 
ATOM     12  O   UNL     1       7.098   8.775  -7.657  1.00  0.00    -0.342 OA
ATOM     13  C   UNL     1       7.960  11.468  -6.910  1.00  0.00    +0.167 C 
ATOM     14  C   UNL     1       7.023  11.193  -8.108  1.00  0.00    +0.139 C 
BRANCH  10  15
ATOM     15  C   UNL     1       9.439   8.562  -7.143  1.00  0.00    +0.191 C 
BRANCH  15  16
ATOM     16  O   UNL     1      10.274   8.009  -6.129  1.00  0.00    -0.394 OA
ATOM     17  H   UNL     1      10.731   7.244  -6.521  1.00  0.00    +0.210 HD
ENDBRANCH  15  16
ENDBRANCH  10  15
BRANCH  11  18
ATOM     18  O   UNL     1       9.037  10.509  -4.951  1.00  0.00    -0.388 OA
ATOM     19  H   UNL     1       9.428   9.636  -4.760  1.00  0.00    +0.211 HD
ENDBRANCH  11  18
BRANCH  13  20
ATOM     20  O   UNL     1       7.520  12.648  -6.207  1.00  0.00    -0.388 OA
ATOM     21  H   UNL     1       6.547  12.633  -6.275  1.00  0.00    +0.211 HD
ENDBRANCH  13  20
BRANCH  14  22
ATOM     22  N   UNL     1       7.816  11.113  -9.372  1.00  0.00    -0.321 NA
ATOM     23  H   UNL     1       8.512  11.874  -9.310  1.00  0.00    +0.119 HD
ATOM     24  H   UNL     1       8.403  10.264  -9.295  1.00  0.00    +0.119 HD
ENDBRANCH  14  22
ENDBRANCH   8   9
ENDBRANCH   7   8
ENDBRANCH   1   7
BRANCH   2  25
ATOM     25  O   UNL     1       6.095   8.572 -12.329  1.00  0.00    -0.342 OA
BRANCH  25  26
ATOM     26  C   UNL     1       5.750   9.439 -13.417  1.00  0.00    +0.270 C 
ATOM     27  C   UNL     1       6.118  10.900 -13.009  1.00  0.00    +0.139 C 
ATOM     28  O   UNL     1       4.360   9.335 -13.715  1.00  0.00    -0.342 OA
ATOM     29  C   UNL     1       5.712  11.894 -14.133  1.00  0.00    +0.167 C 
ATOM     30  C   UNL     1       3.882  10.235 -14.725  1.00  0.00    +0.178 C 
ATOM     31  C   UNL     1       4.959  11.195 -15.272  1.00  0.00    +0.176 C 
BRANCH  27  32
ATOM     32  N   UNL     1       5.567  11.252 -11.674  1.00  0.00    -0.321 NA
ATOM     33  H   UNL     1       5.778  10.472 -11.042  1.00  0.00    +0.119 HD
ATOM     34  H   UNL     1       6.137  12.021 -11.315  1.00  0.00    +0.119 HD
ENDBRANCH  27  32
BRANCH  29  35
ATOM     35  O   UNL     1       4.893  12.985 -13.665  1.00  0.00    -0.388 OA
ATOM     36  H   UNL     1       5.429  13.411 -12.963  1.00  0.00    +0.211 HD
ENDBRANCH  29  35
BRANCH  30  37
ATOM     37  C   UNL     1       2.599  10.915 -14.205  1.00  0.00    +0.191 C 
BRANCH  37  38
ATOM     38  O   UNL     1       2.562  11.079 -12.789  1.00  0.00    -0.394 OA
ATOM     39  H   UNL     1       1.921  10.421 -12.436  1.00  0.00    +0.210 HD
ENDBRANCH  37  38
ENDBRANCH  30  37
BRANCH  31  40
ATOM     40  O   UNL     1       4.423  12.180 -16.162  1.00  0.00    -0.388 OA
ATOM     41  H   UNL     1       4.671  13.059 -15.818  1.00  0.00    +0.211 HD
ENDBRANCH  31  40
ENDBRANCH  25  26
ENDBRANCH   2  25
BRANCH   3  42
ATOM     42  O   UNL     1       6.021   5.929 -13.339  1.00  0.00    -0.343 OA
BRANCH  42  43
ATOM     43  C   UNL     1       7.389   5.516 -13.433  1.00  0.00    +0.270 C 
ATOM     44  C   UNL     1       7.388   3.989 -13.712  1.00  0.00    +0.139 C 
ATOM     45  O   UNL     1       8.041   5.840 -12.201  1.00  0.00    -0.342 OA
ATOM     46  C   UNL     1       8.801   3.404 -13.572  1.00  0.00    +0.167 C 
ATOM     47  C   UNL     1       9.381   5.351 -12.078  1.00  0.00    +0.178 C 
ATOM     48  C   UNL     1       9.420   3.821 -12.236  1.00  0.00    +0.176 C 
BRANCH  44  49
ATOM     49  N   UNL     1       6.843   3.677 -15.056  1.00  0.00    -0.321 NA
ATOM     50  H   UNL     1       6.164   4.398 -15.300  1.00  0.00    +0.119 HD
ATOM     51  H   UNL     1       6.323   2.798 -14.972  1.00  0.00    +0.119 HD
ENDBRANCH  44  49
BRANCH  46  52
ATOM     52  O   UNL     1       8.739   1.967 -13.634  1.00  0.00    -0.388 OA
ATOM     53  H   UNL     1       8.147   1.771 -14.389  1.00  0.00    +0.211 HD
ENDBRANCH  46  52
BRANCH  47  54
ATOM     54  C   UNL     1      10.354   6.122 -12.990  1.00  0.00    +0.191 C 
BRANCH  54  55
ATOM     55  O   UNL     1      11.690   6.007 -12.509  1.00  0.00    -0.394 OA
ATOM     56  H   UNL     1      12.102   5.261 -12.987  1.00  0.00    +0.210 HD
ENDBRANCH  54  55
ENDBRANCH  47  54
BRANCH  48  57
ATOM     57  O   UNL     1      10.730   3.251 -12.135  1.00  0.00    -0.388 OA
ATOM     58  H   UNL     1      11.097   3.182 -13.045  1.00  0.00    +0.211 HD
ENDBRANCH  48  57
ENDBRANCH  42  43
ENDBRANCH   3  42
BRANCH   5  59
ATOM     59  O   UNL     1       3.020   4.822  -9.620  1.00  0.00    -0.320 OA
BRANCH  59  60
ATOM     60  C   UNL     1       2.843   4.807  -8.203  1.00  0.00    +0.273 C 
ATOM     61  C   UNL     1       2.655   3.359  -7.663  1.00  0.00    +0.140 C 
ATOM     62  O   UNL     1       4.040   5.392  -7.669  1.00  0.00    -0.342 OA
ATOM     63  C   UNL     1       2.690   3.378  -6.121  1.00  0.00    +0.174 C 
ATOM     64  C   UNL     1       4.030   5.485  -6.235  1.00  0.00    +0.178 C 
ATOM     65  C   UNL     1       3.944   4.093  -5.607  1.00  0.00    +0.176 C 
BRANCH  61  66
ATOM     66  N   UNL     1       1.398   2.723  -8.108  1.00  0.00    -0.321 NA
ATOM     67  H   UNL     1       1.618   1.796  -8.497  1.00  0.00    +0.119 HD
ATOM     68  H   UNL     1       1.021   3.266  -8.899  1.00  0.00    +0.119 HD
ENDBRANCH  61  66
BRANCH  63  69
ATOM     69  O   UNL     1       2.730   2.034  -5.601  1.00  0.00    -0.343 OA
BRANCH  69  70
ATOM     70  C   UNL     1       3.660   1.204  -6.303  1.00  0.00    +0.270 C 
ATOM     71  C   UNL     1       4.675   0.600  -5.288  1.00  0.00    +0.139 C 
ATOM     72  O   UNL     1       2.919   0.218  -7.038  1.00  0.00    -0.342 OA
ATOM     73  C   UNL     1       5.150  -0.746  -5.846  1.00  0.00    +0.167 C 
ATOM     74  C   UNL     1       2.645  -0.966  -6.272  1.00  0.00    +0.178 C 
ATOM     75  C   UNL     1       3.963  -1.718  -5.963  1.00  0.00    +0.176 C 
BRANCH  71  76
ATOM     76  N   UNL     1       5.816   1.503  -4.983  1.00  0.00    -0.321 NA
ATOM     77  H   UNL     1       5.414   2.299  -4.475  1.00  0.00    +0.119 HD
ATOM     78  H   UNL     1       6.408   1.040  -4.275  1.00  0.00    +0.119 HD
ENDBRANCH  71  76
BRANCH  73  79
ATOM     79  O   UNL     1       6.157  -1.324  -4.999  1.00  0.00    -0.388 OA
ATOM     80  H   UNL     1       6.939  -1.429  -5.574  1.00  0.00    +0.211 HD
ENDBRANCH  73  79
BRANCH  74  81
ATOM     81  C   UNL     1       1.605  -1.801  -7.032  1.00  0.00    +0.191 C 
BRANCH  81  82
ATOM     82  O   UNL     1       1.292  -1.205  -8.294  1.00  0.00    -0.394 OA
ATOM     83  H   UNL     1       2.109  -0.780  -8.615  1.00  0.00    +0.210 HD
ENDBRANCH  81  82
ENDBRANCH  74  81
BRANCH  75  84
ATOM     84  O   UNL     1       4.339  -2.714  -6.925  1.00  0.00    -0.388 OA
ATOM     85  H   UNL     1       5.000  -2.300  -7.524  1.00  0.00    +0.211 HD
ENDBRANCH  75  84
ENDBRANCH  69  70
ENDBRANCH  63  69
BRANCH  64  86
ATOM     86  C   UNL     1       5.312   6.211  -5.819  1.00  0.00    +0.191 C 
BRANCH  86  87
ATOM     87  O   UNL     1       5.038   7.608  -5.668  1.00  0.00    -0.394 OA
ATOM     88  H   UNL     1       4.101   7.648  -5.390  1.00  0.00    +0.210 HD
ENDBRANCH  86  87
ENDBRANCH  64  86
BRANCH  65  89
ATOM     89  O   UNL     1       3.887   4.187  -4.179  1.00  0.00    -0.388 OA
ATOM     90  H   UNL     1       3.432   3.373  -3.879  1.00  0.00    +0.211 HD
ENDBRANCH  65  89
ENDBRANCH  59  60
ENDBRANCH   5  59
BRANCH   4  91
ATOM     91  N   UNL     1       3.386   5.121 -12.444  1.00  0.00    -0.321 NA
ATOM     92  H   UNL     1       2.573   5.598 -12.047  1.00  0.00    +0.119 HD
ATOM     93  H   UNL     1       3.153   4.128 -12.518  1.00  0.00    +0.119 HD
ENDBRANCH   4  91
TORSDOF 36
ENDMDL
MODEL 5
REMARK VINA RESULT:    -7.205      3.666     10.558
REMARK INTER + INTRA:         -23.827
REMARK INTER:                 -17.561
REMARK INTRA:                  -6.266
REMARK UNBOUND:                -5.672
REMARK SMILES N[C@@H]1[C@@H](O[C@@H]2[C@H](N)[C@H](O[C@@H]3O[C@H](CO)[C@@H](O)[C@H](O[C@@H]4O[C@@H](CO)[C@@H](O)[C@H](O)[C@H]4N)[C@H]3N)O[C@@H](CO[C@H]3O[C@@H](CO)[C@@H](O)[C@H](O)[C@H]3N)[C@H]2O[C@H]2O[C@@H](CO)[C@@H](O)[C@@H](O)[C@H]2N)O[C@H](CO)[C@H](O)[C@H]1O
REMARK SMILES IDX 33 1 47 2 5 3 6 4 8 5 32 6 34 7 35 8 36 9 38 10 41 11 37 12
REMARK SMILES IDX 43 13 45 14 39 15 40 16 42 18 44 20 46 22 48 25 49 26 58 27
REMARK SMILES IDX 50 28 56 29 51 30 54 31 59 32 57 35 52 37 53 38 55 40 4 42
REMARK SMILES IDX 3 43 2 44 60 45 66 46 61 47 64 48 1 49 67 52 62 54 63 55
REMARK SMILES IDX 65 57 9 59 10 60 30 61 11 62 17 63 12 64 15 65 31 66 18 69
REMARK SMILES IDX 19 70 28 71 20 72 26 73 21 74 24 75 29 76 27 79 22 81 23 82
REMARK SMILES IDX 25 84 13 86 14 87 16 89 7 91
REMARK H PARENT 40 17 42 19 44 21 46 23 46 24 59 33 59 34 57 36 53 39 55 41
REMARK H PARENT 1 50 1 51 67 53 63 56 65 58 31 67 31 68 29 77 29 78 27 80
REMARK H PARENT 23 83 25 85 14 88 16 90 7 92 7 93
ROOT
ATOM      1  C   UNL     1      -2.370 -10.896  -4.785  1.00  0.00    +0.179 C 
ATOM      2  C   UNL     1      -1.657 -10.236  -3.587  1.00  0.00    +0.183 C 
ATOM      3  C   UNL     1      -1.370  -8.745  -3.857  1.00  0.00    +0.175 C 
ATOM      4  C   UNL     1      -2.666  -8.033  -4.301  1.00  0.00    +0.140 C 
ATOM      5  C   UNL     1      -3.260  -8.785  -5.526  1.00  0.00    +0.273 C 
ATOM      6  O   UNL     1      -3.527 -10.142  -5.192  1.00  0.00    -0.342 OA
ENDROOT
BRANCH   1   7
ATOM      7  C   UNL     1      -1.419 -11.187  -5.972  1.00  0.00    +0.198 C 
BRANCH   7   8
ATOM      8  O   UNL     1      -2.153 -11.589  -7.132  1.00  0.00    -0.348 OA
BRANCH   8   9
ATOM      9  C   UNL     1      -1.319 -11.741  -8.291  1.00  0.00    +0.270 C 
ATOM     10  C   UNL     1      -1.228 -12.744 -10.488  1.00  0.00    +0.178 C 
ATOM     11  C   UNL     1       0.074 -11.930 -10.564  1.00  0.00    +0.176 C 
ATOM     12  O   UNL     1      -1.944 -12.583  -9.255  1.00  0.00    -0.342 OA
ATOM     13  C   UNL     1      -0.131 -10.467 -10.141  1.00  0.00    +0.167 C 
ATOM     14  C   UNL     1      -1.024 -10.331  -8.887  1.00  0.00    +0.139 C 
BRANCH  10  15
ATOM     15  C   UNL     1      -2.208 -12.494 -11.646  1.00  0.00    +0.191 C 
BRANCH  15  16
ATOM     16  O   UNL     1      -3.311 -11.687 -11.240  1.00  0.00    -0.394 OA
ATOM     17  H   UNL     1      -3.151 -11.430 -10.314  1.00  0.00    +0.210 HD
ENDBRANCH  15  16
ENDBRANCH  10  15
BRANCH  11  18
ATOM     18  O   UNL     1       0.700 -11.984 -11.852  1.00  0.00    -0.388 OA
ATOM     19  H   UNL     1       1.393 -12.668 -11.809  1.00  0.00    +0.211 HD
ENDBRANCH  11  18
BRANCH  13  20
ATOM     20  O   UNL     1       1.168  -9.900  -9.880  1.00  0.00    -0.388 OA
ATOM     21  H   UNL     1       1.017  -8.936  -9.838  1.00  0.00    +0.211 HD
ENDBRANCH  13  20
BRANCH  14  22
ATOM     22  N   UNL     1      -2.290  -9.616  -9.233  1.00  0.00    -0.321 NA
ATOM     23  H   UNL     1      -2.007  -8.831  -9.842  1.00  0.00    +0.119 HD
ATOM     24  H   UNL     1      -2.804 -10.234  -9.886  1.00  0.00    +0.119 HD
ENDBRANCH  14  22
ENDBRANCH   8   9
ENDBRANCH   7   8
ENDBRANCH   1   7
BRANCH   2  25
ATOM     25  O   UNL     1      -0.410 -10.908  -3.329  1.00  0.00    -0.342 OA
BRANCH  25  26
ATOM     26  C   UNL     1      -0.365 -11.491  -2.021  1.00  0.00    +0.270 C 
ATOM     27  C   UNL     1       0.699 -10.717  -1.181  1.00  0.00    +0.139 C 
ATOM     28  O   UNL     1      -0.032 -12.875  -2.103  1.00  0.00    -0.342 OA
ATOM     29  C   UNL     1       0.830 -11.345   0.235  1.00  0.00    +0.167 C 
ATOM     30  C   UNL     1       0.139 -13.538  -0.843  1.00  0.00    +0.178 C 
ATOM     31  C   UNL     1      -0.019 -12.613   0.382  1.00  0.00    +0.176 C 
BRANCH  27  32
ATOM     32  N   UNL     1       1.992 -10.603  -1.906  1.00  0.00    -0.321 NA
ATOM     33  H   UNL     1       2.217  -9.604  -1.970  1.00  0.00    +0.119 HD
ATOM     34  H   UNL     1       2.711 -10.978  -1.283  1.00  0.00    +0.119 HD
ENDBRANCH  27  32
BRANCH  29  35
ATOM     35  O   UNL     1       2.188 -11.679   0.589  1.00  0.00    -0.388 OA
ATOM     36  H   UNL     1       2.740 -11.145  -0.021  1.00  0.00    +0.211 HD
ENDBRANCH  29  35
BRANCH  30  37
ATOM     37  C   UNL     1       1.453 -14.345  -0.890  1.00  0.00    +0.191 C 
BRANCH  37  38
ATOM     38  O   UNL     1       2.502 -13.703  -1.612  1.00  0.00    -0.394 OA
ATOM     39  H   UNL     1       2.469 -14.043  -2.536  1.00  0.00    +0.210 HD
ENDBRANCH  37  38
ENDBRANCH  30  37
BRANCH  31  40
ATOM     40  O   UNL     1       0.307 -13.263   1.614  1.00  0.00    -0.388 OA
ATOM     41  H   UNL     1       0.038 -14.198   1.538  1.00  0.00    +0.211 HD
ENDBRANCH  31  40
ENDBRANCH  25  26
ENDBRANCH   2  25
BRANCH   3  42
ATOM     42  O   UNL     1      -0.786  -8.182  -2.662  1.00  0.00    -0.343 OA
BRANCH  42  43
ATOM     43  C   UNL     1       0.474  -7.534  -2.869  1.00  0.00    +0.270 C 
ATOM     44  C   UNL     1       0.187  -6.018  -3.035  1.00  0.00    +0.139 C 
ATOM     45  O   UNL     1       1.085  -8.099  -4.032  1.00  0.00    -0.342 OA
ATOM     46  C   UNL     1       1.438  -5.271  -3.519  1.00  0.00    +0.167 C 
ATOM     47  C   UNL     1       2.286  -7.451  -4.463  1.00  0.00    +0.178 C 
ATOM     48  C   UNL     1       2.028  -5.961  -4.751  1.00  0.00    +0.176 C 
BRANCH  44  49
ATOM     49  N   UNL     1      -0.308  -5.411  -1.776  1.00  0.00    -0.321 NA
ATOM     50  H   UNL     1      -0.833  -6.121  -1.265  1.00  0.00    +0.119 HD
ATOM     51  H   UNL     1      -0.978  -4.681  -2.038  1.00  0.00    +0.119 HD
ENDBRANCH  44  49
BRANCH  46  52
ATOM     52  O   UNL     1       1.094  -3.915  -3.858  1.00  0.00    -0.388 OA
ATOM     53  H   UNL     1       0.186  -3.790  -3.512  1.00  0.00    +0.211 HD
ENDBRANCH  46  52
BRANCH  47  54
ATOM     54  C   UNL     1       3.459  -7.731  -3.505  1.00  0.00    +0.191 C 
BRANCH  54  55
ATOM     55  O   UNL     1       4.667  -7.176  -4.015  1.00  0.00    -0.394 OA
ATOM     56  H   UNL     1       4.600  -7.194  -4.990  1.00  0.00    +0.210 HD
ENDBRANCH  54  55
ENDBRANCH  47  54
BRANCH  48  57
ATOM     57  O   UNL     1       3.185  -5.234  -5.179  1.00  0.00    -0.388 OA
ATOM     58  H   UNL     1       3.874  -5.891  -5.428  1.00  0.00    +0.211 HD
ENDBRANCH  48  57
ENDBRANCH  42  43
ENDBRANCH   3  42
BRANCH   5  59
ATOM     59  O   UNL     1      -4.467  -8.120  -5.904  1.00  0.00    -0.320 OA
BRANCH  59  60
ATOM     60  C   UNL     1      -5.432  -8.971  -6.525  1.00  0.00    +0.273 C 
ATOM     61  C   UNL     1      -6.885  -8.566  -6.140  1.00  0.00    +0.140 C 
ATOM     62  O   UNL     1      -5.221  -8.812  -7.936  1.00  0.00    -0.342 OA
ATOM     63  C   UNL     1      -7.884  -9.367  -7.002  1.00  0.00    +0.174 C 
ATOM     64  C   UNL     1      -6.099  -9.625  -8.731  1.00  0.00    +0.178 C 
ATOM     65  C   UNL     1      -7.557  -9.232  -8.493  1.00  0.00    +0.176 C 
BRANCH  61  66
ATOM     66  N   UNL     1      -7.199  -8.782  -4.714  1.00  0.00    -0.321 NA
ATOM     67  H   UNL     1      -7.757  -9.642  -4.626  1.00  0.00    +0.119 HD
ATOM     68  H   UNL     1      -7.821  -8.023  -4.398  1.00  0.00    +0.119 HD
ENDBRANCH  61  66
BRANCH  63  69
ATOM     69  O   UNL     1      -9.223  -8.863  -6.818  1.00  0.00    -0.343 OA
BRANCH  69  70
ATOM     70  C   UNL     1     -10.107  -9.844  -6.271  1.00  0.00    +0.270 C 
ATOM     71  C   UNL     1     -11.028  -9.170  -5.212  1.00  0.00    +0.139 C 
ATOM     72  O   UNL     1     -10.822 -10.460  -7.353  1.00  0.00    -0.342 OA
ATOM     73  C   UNL     1     -12.348  -9.948  -5.178  1.00  0.00    +0.167 C 
ATOM     74  C   UNL     1     -12.028  -9.761  -7.701  1.00  0.00    +0.178 C 
ATOM     75  C   UNL     1     -13.052  -9.856  -6.543  1.00  0.00    +0.176 C 
BRANCH  71  76
ATOM     76  N   UNL     1     -10.410  -9.076  -3.864  1.00  0.00    -0.321 NA
ATOM     77  H   UNL     1      -9.746  -8.294  -3.915  1.00  0.00    +0.119 HD
ATOM     78  H   UNL     1     -11.130  -8.737  -3.206  1.00  0.00    +0.119 HD
ENDBRANCH  71  76
BRANCH  73  79
ATOM     79  O   UNL     1     -13.219  -9.431  -4.157  1.00  0.00    -0.388 OA
ATOM     80  H   UNL     1     -14.086  -9.845  -4.334  1.00  0.00    +0.211 HD
ENDBRANCH  73  79
BRANCH  74  81
ATOM     81  C   UNL     1     -12.536 -10.313  -9.039  1.00  0.00    +0.191 C 
BRANCH  81  82
ATOM     82  O   UNL     1     -13.808  -9.750  -9.376  1.00  0.00    -0.394 OA
ATOM     83  H   UNL     1     -14.423 -10.497  -9.492  1.00  0.00    +0.210 HD
ENDBRANCH  81  82
ENDBRANCH  74  81
BRANCH  75  84
ATOM     84  O   UNL     1     -13.956 -10.967  -6.615  1.00  0.00    -0.388 OA
ATOM     85  H   UNL     1     -14.849 -10.600  -6.807  1.00  0.00    +0.211 HD
ENDBRANCH  75  84
ENDBRANCH  69  70
ENDBRANCH  63  69
BRANCH  64  86
ATOM     86  C   UNL     1      -5.696  -9.428 -10.195  1.00  0.00    +0.191 C 
BRANCH  86  87
ATOM     87  O   UNL     1      -6.097 -10.573 -10.956  1.00  0.00    -0.394 OA
ATOM     88  H   UNL     1      -6.708 -10.218 -11.633  1.00  0.00    +0.210 HD
ENDBRANCH  86  87
ENDBRANCH  64  86
BRANCH  65  89
ATOM     89  O   UNL     1      -8.436 -10.073  -9.250  1.00  0.00    -0.388 OA
ATOM     90  H   UNL     1      -8.396  -9.737 -10.169  1.00  0.00    +0.211 HD
ENDBRANCH  65  89
ENDBRANCH  59  60
ENDBRANCH   5  59
BRANCH   4  91
ATOM     91  N   UNL     1      -3.626  -7.925  -3.175  1.00  0.00    -0.321 NA
ATOM     92  H   UNL     1      -4.260  -8.726  -3.229  1.00  0.00    +0.119 HD
ATOM     93  H   UNL     1      -4.185  -7.081  -3.322  1.00  0.00    +0.119 HD
ENDBRANCH   4  91
TORSDOF 36
ENDMDL
MODEL 6
REMARK VINA RESULT:    -7.191     11.502     17.756
REMARK INTER + INTRA:         -23.794
REMARK INTER:                 -17.036
REMARK INTRA:                  -6.757
REMARK UNBOUND:                -5.672
REMARK SMILES N[C@@H]1[C@@H](O[C@@H]2[C@H](N)[C@H](O[C@@H]3O[C@H](CO)[C@@H](O)[C@H](O[C@@H]4O[C@@H](CO)[C@@H](O)[C@H](O)[C@H]4N)[C@H]3N)O[C@@H](CO[C@H]3O[C@@H](CO)[C@@H](O)[C@H](O)[C@H]3N)[C@H]2O[C@H]2O[C@@H](CO)[C@@H](O)[C@@H](O)[C@H]2N)O[C@H](CO)[C@H](O)[C@H]1O
REMARK SMILES IDX 33 1 47 2 5 3 6 4 8 5 32 6 34 7 35 8 36 9 38 10 41 11 37 12
REMARK SMILES IDX 43 13 45 14 39 15 40 16 42 18 44 20 46 22 48 25 49 26 58 27
REMARK SMILES IDX 50 28 56 29 51 30 54 31 59 32 57 35 52 37 53 38 55 40 4 42
REMARK SMILES IDX 3 43 2 44 60 45 66 46 61 47 64 48 1 49 67 52 62 54 63 55
REMARK SMILES IDX 65 57 9 59 10 60 30 61 11 62 17 63 12 64 15 65 31 66 18 69
REMARK SMILES IDX 19 70 28 71 20 72 26 73 21 74 24 75 29 76 27 79 22 81 23 82
REMARK SMILES IDX 25 84 13 86 14 87 16 89 7 91
REMARK H PARENT 40 17 42 19 44 21 46 23 46 24 59 33 59 34 57 36 53 39 55 41
REMARK H PARENT 1 50 1 51 67 53 63 56 65 58 31 67 31 68 29 77 29 78 27 80
REMARK H PARENT 23 83 25 85 14 88 16 90 7 92 7 93
ROOT
ATOM      1  C   UNL     1       4.315   7.258  -9.717  1.00  0.00    +0.179 C 
ATOM      2  C   UNL     1       5.460   7.703  -8.783  1.00  0.00    +0.183 C 
ATOM      3  C   UNL     1       6.815   7.705  -9.519  1.00  0.00    +0.175 C 
ATOM      4  C   UNL     1       6.703   8.519 -10.827  1.00  0.00    +0.140 C 
ATOM      5  C   UNL     1       5.532   7.948 -11.676  1.00  0.00    +0.273 C 
ATOM      6  O   UNL     1       4.314   8.008 -10.946  1.00  0.00    -0.342 OA
ENDROOT
BRANCH   1   7
ATOM      7  C   UNL     1       4.298   5.730  -9.970  1.00  0.00    +0.198 C 
BRANCH   7   8
ATOM      8  O   UNL     1       3.010   5.177  -9.684  1.00  0.00    -0.348 OA
BRANCH   8   9
ATOM      9  C   UNL     1       3.088   3.901  -9.030  1.00  0.00    +0.270 C 
ATOM     10  C   UNL     1       4.163   2.723  -7.215  1.00  0.00    +0.178 C 
ATOM     11  C   UNL     1       3.169   1.626  -7.630  1.00  0.00    +0.176 C 
ATOM     12  O   UNL     1       4.056   3.928  -7.985  1.00  0.00    -0.342 OA
ATOM     13  C   UNL     1       1.735   2.163  -7.762  1.00  0.00    +0.167 C 
ATOM     14  C   UNL     1       1.678   3.532  -8.477  1.00  0.00    +0.139 C 
BRANCH  10  15
ATOM     15  C   UNL     1       4.114   3.102  -5.725  1.00  0.00    +0.191 C 
BRANCH  15  16
ATOM     16  O   UNL     1       2.774   3.272  -5.268  1.00  0.00    -0.394 OA
ATOM     17  H   UNL     1       2.822   3.729  -4.409  1.00  0.00    +0.210 HD
ENDBRANCH  15  16
ENDBRANCH  10  15
BRANCH  11  18
ATOM     18  O   UNL     1       3.187   0.488  -6.759  1.00  0.00    -0.388 OA
ATOM     19  H   UNL     1       3.597  -0.247  -7.251  1.00  0.00    +0.211 HD
ENDBRANCH  11  18
BRANCH  13  20
ATOM     20  O   UNL     1       0.970   1.192  -8.504  1.00  0.00    -0.388 OA
ATOM     21  H   UNL     1       1.636   0.636  -8.952  1.00  0.00    +0.211 HD
ENDBRANCH  13  20
BRANCH  14  22
ATOM     22  N   UNL     1       1.175   4.581  -7.539  1.00  0.00    -0.321 NA
ATOM     23  H   UNL     1       1.627   5.460  -7.840  1.00  0.00    +0.119 HD
ATOM     24  H   UNL     1       0.182   4.741  -7.786  1.00  0.00    +0.119 HD
ENDBRANCH  14  22
ENDBRANCH   8   9
ENDBRANCH   7   8
ENDBRANCH   1   7
BRANCH   2  25
ATOM     25  O   UNL     1       5.547   6.811  -7.656  1.00  0.00    -0.342 OA
BRANCH  25  26
ATOM     26  C   UNL     1       5.570   7.514  -6.407  1.00  0.00    +0.270 C 
ATOM     27  C   UNL     1       4.721   6.702  -5.379  1.00  0.00    +0.139 C 
ATOM     28  O   UNL     1       5.045   8.829  -6.565  1.00  0.00    -0.342 OA
ATOM     29  C   UNL     1       4.664   7.447  -4.016  1.00  0.00    +0.167 C 
ATOM     30  C   UNL     1       4.927   9.589  -5.354  1.00  0.00    +0.178 C 
ATOM     31  C   UNL     1       5.345   8.819  -4.084  1.00  0.00    +0.176 C 
BRANCH  27  32
ATOM     32  N   UNL     1       3.382   6.354  -5.926  1.00  0.00    -0.321 NA
ATOM     33  H   UNL     1       3.523   5.625  -6.633  1.00  0.00    +0.119 HD
ATOM     34  H   UNL     1       2.875   5.877  -5.177  1.00  0.00    +0.119 HD
ENDBRANCH  27  32
BRANCH  29  35
ATOM     35  O   UNL     1       3.321   7.643  -3.527  1.00  0.00    -0.388 OA
ATOM     36  H   UNL     1       2.987   6.737  -3.354  1.00  0.00    +0.211 HD
ENDBRANCH  29  35
BRANCH  30  37
ATOM     37  C   UNL     1       3.519  10.217  -5.307  1.00  0.00    +0.191 C 
BRANCH  37  38
ATOM     38  O   UNL     1       2.500   9.400  -5.879  1.00  0.00    -0.394 OA
ATOM     39  H   UNL     1       2.282   9.780  -6.760  1.00  0.00    +0.210 HD
ENDBRANCH  37  38
ENDBRANCH  30  37
BRANCH  31  40
ATOM     40  O   UNL     1       5.073   9.545  -2.881  1.00  0.00    -0.388 OA
ATOM     41  H   UNL     1       5.310   8.972  -2.127  1.00  0.00    +0.211 HD
ENDBRANCH  31  40
ENDBRANCH  25  26
ENDBRANCH   2  25
BRANCH   3  42
ATOM     42  O   UNL     1       7.814   8.215  -8.609  1.00  0.00    -0.343 OA
BRANCH  42  43
ATOM     43  C   UNL     1       8.985   7.398  -8.498  1.00  0.00    +0.270 C 
ATOM     44  C   UNL     1       9.790   7.917  -7.277  1.00  0.00    +0.139 C 
ATOM     45  O   UNL     1       9.724   7.505  -9.718  1.00  0.00    -0.342 OA
ATOM     46  C   UNL     1      11.186   7.279  -7.228  1.00  0.00    +0.167 C 
ATOM     47  C   UNL     1      11.005   6.865  -9.710  1.00  0.00    +0.178 C 
ATOM     48  C   UNL     1      11.887   7.427  -8.581  1.00  0.00    +0.176 C 
BRANCH  44  49
ATOM     49  N   UNL     1       9.076   7.666  -6.001  1.00  0.00    -0.321 NA
ATOM     50  H   UNL     1       9.421   8.330  -5.308  1.00  0.00    +0.119 HD
ATOM     51  H   UNL     1       9.354   6.733  -5.680  1.00  0.00    +0.119 HD
ENDBRANCH  44  49
BRANCH  46  52
ATOM     52  O   UNL     1      11.979   7.923  -6.214  1.00  0.00    -0.388 OA
ATOM     53  H   UNL     1      12.370   8.704  -6.657  1.00  0.00    +0.211 HD
ENDBRANCH  46  52
BRANCH  47  54
ATOM     54  C   UNL     1      10.874   5.330  -9.727  1.00  0.00    +0.191 C 
BRANCH  54  55
ATOM     55  O   UNL     1      10.148   4.902 -10.875  1.00  0.00    -0.394 OA
ATOM     56  H   UNL     1      10.739   5.014 -11.645  1.00  0.00    +0.210 HD
ENDBRANCH  54  55
ENDBRANCH  47  54
BRANCH  48  57
ATOM     57  O   UNL     1      13.187   6.831  -8.497  1.00  0.00    -0.388 OA
ATOM     58  H   UNL     1      13.438   6.534  -9.400  1.00  0.00    +0.211 HD
ENDBRANCH  48  57
ENDBRANCH  42  43
ENDBRANCH   3  42
BRANCH   5  59
ATOM     59  O   UNL     1       5.436   8.730 -12.869  1.00  0.00    -0.320 OA
BRANCH  59  60
ATOM     60  C   UNL     1       5.490   7.965 -14.074  1.00  0.00    +0.273 C 
ATOM     61  C   UNL     1       6.897   7.334 -14.291  1.00  0.00    +0.140 C 
ATOM     62  O   UNL     1       4.498   6.940 -13.913  1.00  0.00    -0.342 OA
ATOM     63  C   UNL     1       6.839   6.348 -15.476  1.00  0.00    +0.174 C 
ATOM     64  C   UNL     1       4.390   6.077 -15.056  1.00  0.00    +0.178 C 
ATOM     65  C   UNL     1       5.705   5.334 -15.293  1.00  0.00    +0.176 C 
BRANCH  61  66
ATOM     66  N   UNL     1       7.956   8.331 -14.545  1.00  0.00    -0.321 NA
ATOM     67  H   UNL     1       8.365   8.614 -13.644  1.00  0.00    +0.119 HD
ATOM     68  H   UNL     1       7.517   9.184 -14.923  1.00  0.00    +0.119 HD
ENDBRANCH  61  66
BRANCH  63  69
ATOM     69  O   UNL     1       8.066   5.596 -15.565  1.00  0.00    -0.343 OA
BRANCH  69  70
ATOM     70  C   UNL     1       8.405   4.954 -14.333  1.00  0.00    +0.270 C 
ATOM     71  C   UNL     1       8.392   3.410 -14.539  1.00  0.00    +0.139 C 
ATOM     72  O   UNL     1       9.669   5.469 -13.888  1.00  0.00    -0.342 OA
ATOM     73  C   UNL     1       9.390   2.799 -13.549  1.00  0.00    +0.167 C 
ATOM     74  C   UNL     1      10.789   4.745 -14.420  1.00  0.00    +0.178 C 
ATOM     75  C   UNL     1      10.811   3.304 -13.851  1.00  0.00    +0.176 C 
BRANCH  71  76
ATOM     76  N   UNL     1       7.041   2.806 -14.403  1.00  0.00    -0.321 NA
ATOM     77  H   UNL     1       7.128   1.845 -14.755  1.00  0.00    +0.119 HD
ATOM     78  H   UNL     1       6.850   2.677 -13.397  1.00  0.00    +0.119 HD
ENDBRANCH  71  76
BRANCH  73  79
ATOM     79  O   UNL     1       9.369   1.363 -13.625  1.00  0.00    -0.388 OA
ATOM     80  H   UNL     1       8.426   1.131 -13.726  1.00  0.00    +0.211 HD
ENDBRANCH  73  79
BRANCH  74  81
ATOM     81  C   UNL     1      12.063   5.553 -14.138  1.00  0.00    +0.191 C 
BRANCH  81  82
ATOM     82  O   UNL     1      11.999   6.180 -12.853  1.00  0.00    -0.394 OA
ATOM     83  H   UNL     1      12.208   7.122 -12.989  1.00  0.00    +0.210 HD
ENDBRANCH  81  82
ENDBRANCH  74  81
BRANCH  75  84
ATOM     84  O   UNL     1      11.573   3.133 -12.648  1.00  0.00    -0.388 OA
ATOM     85  H   UNL     1      12.267   2.462 -12.839  1.00  0.00    +0.211 HD
ENDBRANCH  75  84
ENDBRANCH  69  70
ENDBRANCH  63  69
BRANCH  64  86
ATOM     86  C   UNL     1       3.238   5.106 -14.783  1.00  0.00    +0.191 C 
BRANCH  86  87
ATOM     87  O   UNL     1       2.979   4.334 -15.961  1.00  0.00    -0.394 OA
ATOM     88  H   UNL     1       3.704   3.678 -15.991  1.00  0.00    +0.210 HD
ENDBRANCH  86  87
ENDBRANCH  64  86
BRANCH  65  89
ATOM     89  O   UNL     1       5.614   4.507 -16.460  1.00  0.00    -0.388 OA
ATOM     90  H   UNL     1       4.873   3.890 -16.290  1.00  0.00    +0.211 HD
ENDBRANCH  65  89
ENDBRANCH  59  60
ENDBRANCH   5  59
BRANCH   4  91
ATOM     91  N   UNL     1       6.548   9.967 -10.538  1.00  0.00    -0.321 NA
ATOM     92  H   UNL     1       7.432  10.427 -10.770  1.00  0.00    +0.119 HD
ATOM     93  H   UNL     1       6.403  10.070  -9.531  1.00  0.00    +0.119 HD
ENDBRANCH   4  91
TORSDOF 36
ENDMDL
MODEL 7
REMARK VINA RESULT:    -6.879     12.265     18.209
REMARK INTER + INTRA:         -23.007
REMARK INTER:                 -16.812
REMARK INTRA:                  -6.195
REMARK UNBOUND:                -5.672
REMARK SMILES N[C@@H]1[C@@H](O[C@@H]2[C@H](N)[C@H](O[C@@H]3O[C@H](CO)[C@@H](O)[C@H](O[C@@H]4O[C@@H](CO)[C@@H](O)[C@H](O)[C@H]4N)[C@H]3N)O[C@@H](CO[C@H]3O[C@@H](CO)[C@@H](O)[C@H](O)[C@H]3N)[C@H]2O[C@H]2O[C@@H](CO)[C@@H](O)[C@@H](O)[C@H]2N)O[C@H](CO)[C@H](O)[C@H]1O
REMARK SMILES IDX 33 1 47 2 5 3 6 4 8 5 32 6 34 7 35 8 36 9 38 10 41 11 37 12
REMARK SMILES IDX 43 13 45 14 39 15 40 16 42 18 44 20 46 22 48 25 49 26 58 27
REMARK SMILES IDX 50 28 56 29 51 30 54 31 59 32 57 35 52 37 53 38 55 40 4 42
REMARK SMILES IDX 3 43 2 44 60 45 66 46 61 47 64 48 1 49 67 52 62 54 63 55
REMARK SMILES IDX 65 57 9 59 10 60 30 61 11 62 17 63 12 64 15 65 31 66 18 69
REMARK SMILES IDX 19 70 28 71 20 72 26 73 21 74 24 75 29 76 27 79 22 81 23 82
REMARK SMILES IDX 25 84 13 86 14 87 16 89 7 91
REMARK H PARENT 40 17 42 19 44 21 46 23 46 24 59 33 59 34 57 36 53 39 55 41
REMARK H PARENT 1 50 1 51 67 53 63 56 65 58 31 67 31 68 29 77 29 78 27 80
REMARK H PARENT 23 83 25 85 14 88 16 90 7 92 7 93
ROOT
ATOM      1  C   UNL     1       3.626   8.384  -9.707  1.00  0.00    +0.179 C 
ATOM      2  C   UNL     1       4.524   9.091  -8.671  1.00  0.00    +0.183 C 
ATOM      3  C   UNL     1       5.975   9.213  -9.178  1.00  0.00    +0.175 C 
ATOM      4  C   UNL     1       5.989   9.856 -10.582  1.00  0.00    +0.140 C 
ATOM      5  C   UNL     1       5.067   9.031 -11.523  1.00  0.00    +0.273 C 
ATOM      6  O   UNL     1       3.742   8.989 -11.008  1.00  0.00    -0.342 OA
ENDROOT
BRANCH   1   7
ATOM      7  C   UNL     1       3.847   6.853  -9.756  1.00  0.00    +0.198 C 
BRANCH   7   8
ATOM      8  O   UNL     1       2.677   6.179 -10.232  1.00  0.00    -0.348 OA
BRANCH   8   9
ATOM      9  C   UNL     1       2.422   4.951  -9.534  1.00  0.00    +0.270 C 
ATOM     10  C   UNL     1       3.484   3.211  -8.236  1.00  0.00    +0.178 C 
ATOM     11  C   UNL     1       2.024   2.763  -8.053  1.00  0.00    +0.176 C 
ATOM     12  O   UNL     1       3.633   4.404  -9.018  1.00  0.00    -0.342 OA
ATOM     13  C   UNL     1       1.113   3.920  -7.616  1.00  0.00    +0.167 C 
ATOM     14  C   UNL     1       1.401   5.227  -8.389  1.00  0.00    +0.139 C 
BRANCH  10  15
ATOM     15  C   UNL     1       4.265   3.398  -6.925  1.00  0.00    +0.191 C 
BRANCH  15  16
ATOM     16  O   UNL     1       4.844   2.176  -6.476  1.00  0.00    -0.394 OA
ATOM     17  H   UNL     1       5.093   1.669  -7.269  1.00  0.00    +0.210 HD
ENDBRANCH  15  16
ENDBRANCH  10  15
BRANCH  11  18
ATOM     18  O   UNL     1       1.882   1.659  -7.150  1.00  0.00    -0.388 OA
ATOM     19  H   UNL     1       2.523   1.790  -6.428  1.00  0.00    +0.211 HD
ENDBRANCH  11  18
BRANCH  13  20
ATOM     20  O   UNL     1      -0.252   3.511  -7.838  1.00  0.00    -0.388 OA
ATOM     21  H   UNL     1      -0.348   3.476  -8.809  1.00  0.00    +0.211 HD
ENDBRANCH  13  20
BRANCH  14  22
ATOM     22  N   UNL     1       1.909   6.276  -7.453  1.00  0.00    -0.321 NA
ATOM     23  H   UNL     1       2.929   6.314  -7.609  1.00  0.00    +0.119 HD
ATOM     24  H   UNL     1       1.588   7.184  -7.833  1.00  0.00    +0.119 HD
ENDBRANCH  14  22
ENDBRANCH   8   9
ENDBRANCH   7   8
ENDBRANCH   1   7
BRANCH   2  25
ATOM     25  O   UNL     1       4.526   8.350  -7.437  1.00  0.00    -0.342 OA
BRANCH  25  26
ATOM     26  C   UNL     1       4.589   9.204  -6.288  1.00  0.00    +0.270 C 
ATOM     27  C   UNL     1       4.503   8.308  -5.013  1.00  0.00    +0.139 C 
ATOM     28  O   UNL     1       3.522  10.149  -6.311  1.00  0.00    -0.342 OA
ATOM     29  C   UNL     1       4.510   9.188  -3.732  1.00  0.00    +0.167 C 
ATOM     30  C   UNL     1       3.428  10.992  -5.154  1.00  0.00    +0.178 C 
ATOM     31  C   UNL     1       4.476  10.684  -4.064  1.00  0.00    +0.176 C 
BRANCH  27  32
ATOM     32  N   UNL     1       3.356   7.364  -5.082  1.00  0.00    -0.321 NA
ATOM     33  H   UNL     1       2.930   7.469  -6.009  1.00  0.00    +0.119 HD
ATOM     34  H   UNL     1       3.752   6.421  -5.099  1.00  0.00    +0.119 HD
ENDBRANCH  27  32
BRANCH  29  35
ATOM     35  O   UNL     1       3.412   8.908  -2.839  1.00  0.00    -0.388 OA
ATOM     36  H   UNL     1       3.562   9.499  -2.071  1.00  0.00    +0.211 HD
ENDBRANCH  29  35
BRANCH  30  37
ATOM     37  C   UNL     1       1.963  10.999  -4.673  1.00  0.00    +0.191 C 
BRANCH  37  38
ATOM     38  O   UNL     1       1.266   9.779  -4.918  1.00  0.00    -0.394 OA
ATOM     39  H   UNL     1       1.708   9.340  -5.680  1.00  0.00    +0.210 HD
ENDBRANCH  37  38
ENDBRANCH  30  37
BRANCH  31  40
ATOM     40  O   UNL     1       4.263  11.433  -2.863  1.00  0.00    -0.388 OA
ATOM     41  H   UNL     1       3.790  10.858  -2.233  1.00  0.00    +0.211 HD
ENDBRANCH  31  40
ENDBRANCH  25  26
ENDBRANCH   2  25
BRANCH   3  42
ATOM     42  O   UNL     1       6.727   9.960  -8.197  1.00  0.00    -0.343 OA
BRANCH  42  43
ATOM     43  C   UNL     1       7.816   9.238  -7.611  1.00  0.00    +0.270 C 
ATOM     44  C   UNL     1       8.566  10.222  -6.674  1.00  0.00    +0.139 C 
ATOM     45  O   UNL     1       8.652   8.752  -8.666  1.00  0.00    -0.342 OA
ATOM     46  C   UNL     1       9.898   9.622  -6.200  1.00  0.00    +0.167 C 
ATOM     47  C   UNL     1       9.872   8.137  -8.238  1.00  0.00    +0.178 C 
ATOM     48  C   UNL     1      10.708   9.114  -7.394  1.00  0.00    +0.176 C 
BRANCH  44  49
ATOM     49  N   UNL     1       7.739  10.603  -5.503  1.00  0.00    -0.321 NA
ATOM     50  H   UNL     1       6.816  10.184  -5.616  1.00  0.00    +0.119 HD
ATOM     51  H   UNL     1       7.609  11.619  -5.546  1.00  0.00    +0.119 HD
ENDBRANCH  44  49
BRANCH  46  52
ATOM     52  O   UNL     1      10.661  10.624  -5.504  1.00  0.00    -0.388 OA
ATOM     53  H   UNL     1      11.597  10.385  -5.663  1.00  0.00    +0.211 HD
ENDBRANCH  46  52
BRANCH  47  54
ATOM     54  C   UNL     1       9.618   6.767  -7.582  1.00  0.00    +0.191 C 
BRANCH  54  55
ATOM     55  O   UNL     1      10.721   5.893  -7.802  1.00  0.00    -0.394 OA
ATOM     56  H   UNL     1      10.499   5.040  -7.380  1.00  0.00    +0.210 HD
ENDBRANCH  54  55
ENDBRANCH  47  54
BRANCH  48  57
ATOM     57  O   UNL     1      11.945   8.572  -6.917  1.00  0.00    -0.388 OA
ATOM     58  H   UNL     1      12.417   8.183  -7.688  1.00  0.00    +0.211 HD
ENDBRANCH  48  57
ENDBRANCH  42  43
ENDBRANCH   3  42
BRANCH   5  59
ATOM     59  O   UNL     1       5.081   9.657 -12.808  1.00  0.00    -0.320 OA
BRANCH  59  60
ATOM     60  C   UNL     1       5.440   8.782 -13.879  1.00  0.00    +0.273 C 
ATOM     61  C   UNL     1       6.916   8.303 -13.759  1.00  0.00    +0.140 C 
ATOM     62  O   UNL     1       4.539   7.669 -13.773  1.00  0.00    -0.342 OA
ATOM     63  C   UNL     1       7.183   7.198 -14.803  1.00  0.00    +0.174 C 
ATOM     64  C   UNL     1       4.737   6.685 -14.800  1.00  0.00    +0.178 C 
ATOM     65  C   UNL     1       6.138   6.081 -14.702  1.00  0.00    +0.176 C 
BRANCH  61  66
ATOM     66  N   UNL     1       7.904   9.385 -13.941  1.00  0.00    -0.321 NA
ATOM     67  H   UNL     1       7.591   9.989 -14.713  1.00  0.00    +0.119 HD
ATOM     68  H   UNL     1       8.789   8.968 -14.266  1.00  0.00    +0.119 HD
ENDBRANCH  61  66
BRANCH  63  69
ATOM     69  O   UNL     1       8.471   6.591 -14.575  1.00  0.00    -0.343 OA
BRANCH  69  70
ATOM     70  C   UNL     1       8.629   6.131 -13.230  1.00  0.00    +0.270 C 
ATOM     71  C   UNL     1       9.223   4.692 -13.248  1.00  0.00    +0.139 C 
ATOM     72  O   UNL     1       9.436   7.083 -12.520  1.00  0.00    -0.342 OA
ATOM     73  C   UNL     1      10.027   4.503 -11.957  1.00  0.00    +0.167 C 
ATOM     74  C   UNL     1      10.844   6.822 -12.634  1.00  0.00    +0.178 C 
ATOM     75  C   UNL     1      11.200   5.497 -11.914  1.00  0.00    +0.176 C 
BRANCH  71  76
ATOM     76  N   UNL     1       8.197   3.630 -13.417  1.00  0.00    -0.321 NA
ATOM     77  H   UNL     1       7.724   3.837 -14.305  1.00  0.00    +0.119 HD
ATOM     78  H   UNL     1       8.686   2.741 -13.608  1.00  0.00    +0.119 HD
ENDBRANCH  71  76
BRANCH  73  79
ATOM     79  O   UNL     1      10.537   3.162 -11.865  1.00  0.00    -0.388 OA
ATOM     80  H   UNL     1      10.923   2.979 -12.744  1.00  0.00    +0.211 HD
ENDBRANCH  73  79
BRANCH  74  81
ATOM     81  C   UNL     1      11.604   8.048 -12.111  1.00  0.00    +0.191 C 
BRANCH  81  82
ATOM     82  O   UNL     1      10.849   8.730 -11.105  1.00  0.00    -0.394 OA
ATOM     83  H   UNL     1       9.963   8.323 -11.096  1.00  0.00    +0.210 HD
ENDBRANCH  81  82
ENDBRANCH  74  81
BRANCH  75  84
ATOM     84  O   UNL     1      11.577   5.631 -10.537  1.00  0.00    -0.388 OA
ATOM     85  H   UNL     1      11.170   6.464 -10.207  1.00  0.00    +0.211 HD
ENDBRANCH  75  84
ENDBRANCH  69  70
ENDBRANCH  63  69
BRANCH  64  86
ATOM     86  C   UNL     1       3.653   5.619 -14.620  1.00  0.00    +0.191 C 
BRANCH  86  87
ATOM     87  O   UNL     1       3.467   5.363 -13.224  1.00  0.00    -0.394 OA
ATOM     88  H   UNL     1       2.705   5.921 -12.969  1.00  0.00    +0.210 HD
ENDBRANCH  86  87
ENDBRANCH  64  86
BRANCH  65  89
ATOM     89  O   UNL     1       6.354   5.133 -15.754  1.00  0.00    -0.388 OA
ATOM     90  H   UNL     1       7.196   5.396 -16.178  1.00  0.00    +0.211 HD
ENDBRANCH  65  89
ENDBRANCH  59  60
ENDBRANCH   5  59
BRANCH   4  91
ATOM     91  N   UNL     1       5.604  11.288 -10.514  1.00  0.00    -0.321 NA
ATOM     92  H   UNL     1       4.610  11.354 -10.750  1.00  0.00    +0.119 HD
ATOM     93  H   UNL     1       6.125  11.785 -11.241  1.00  0.00    +0.119 HD
ENDBRANCH   4  91
TORSDOF 36
ENDMDL
MODEL 8
REMARK VINA RESULT:    -6.860      7.951     15.122
REMARK INTER + INTRA:         -22.960
REMARK INTER:                 -15.927
REMARK INTRA:                  -7.033
REMARK UNBOUND:                -5.672
REMARK SMILES N[C@@H]1[C@@H](O[C@@H]2[C@H](N)[C@H](O[C@@H]3O[C@H](CO)[C@@H](O)[C@H](O[C@@H]4O[C@@H](CO)[C@@H](O)[C@H](O)[C@H]4N)[C@H]3N)O[C@@H](CO[C@H]3O[C@@H](CO)[C@@H](O)[C@H](O)[C@H]3N)[C@H]2O[C@H]2O[C@@H](CO)[C@@H](O)[C@@H](O)[C@H]2N)O[C@H](CO)[C@H](O)[C@H]1O
REMARK SMILES IDX 33 1 47 2 5 3 6 4 8 5 32 6 34 7 35 8 36 9 38 10 41 11 37 12
REMARK SMILES IDX 43 13 45 14 39 15 40 16 42 18 44 20 46 22 48 25 49 26 58 27
REMARK SMILES IDX 50 28 56 29 51 30 54 31 59 32 57 35 52 37 53 38 55 40 4 42
REMARK SMILES IDX 3 43 2 44 60 45 66 46 61 47 64 48 1 49 67 52 62 54 63 55
REMARK SMILES IDX 65 57 9 59 10 60 30 61 11 62 17 63 12 64 15 65 31 66 18 69
REMARK SMILES IDX 19 70 28 71 20 72 26 73 21 74 24 75 29 76 27 79 22 81 23 82
REMARK SMILES IDX 25 84 13 86 14 87 16 89 7 91
REMARK H PARENT 40 17 42 19 44 21 46 23 46 24 59 33 59 34 57 36 53 39 55 41
REMARK H PARENT 1 50 1 51 67 53 63 56 65 58 31 67 31 68 29 77 29 78 27 80
REMARK H PARENT 23 83 25 85 14 88 16 90 7 92 7 93
ROOT
ATOM      1  C   UNL     1       8.684  -8.045  -1.414  1.00  0.00    +0.179 C 
ATOM      2  C   UNL     1       9.722  -6.976  -1.813  1.00  0.00    +0.183 C 
ATOM      3  C   UNL     1      10.145  -7.129  -3.288  1.00  0.00    +0.175 C 
ATOM      4  C   UNL     1       8.894  -7.174  -4.192  1.00  0.00    +0.140 C 
ATOM      5  C   UNL     1       7.952  -8.306  -3.692  1.00  0.00    +0.273 C 
ATOM      6  O   UNL     1       7.581  -8.082  -2.338  1.00  0.00    -0.342 OA
ENDROOT
BRANCH   1   7
ATOM      7  C   UNL     1       9.308  -9.446  -1.198  1.00  0.00    +0.198 C 
BRANCH   7   8
ATOM      8  O   UNL     1       9.366  -9.774   0.194  1.00  0.00    -0.348 OA
BRANCH   8   9
ATOM      9  C   UNL     1      10.450 -10.660   0.509  1.00  0.00    +0.270 C 
ATOM     10  C   UNL     1      12.455 -11.659  -0.399  1.00  0.00    +0.178 C 
ATOM     11  C   UNL     1      12.605 -12.144   1.052  1.00  0.00    +0.176 C 
ATOM     12  O   UNL     1      11.295 -10.846  -0.624  1.00  0.00    -0.342 OA
ATOM     13  C   UNL     1      12.429 -11.004   2.066  1.00  0.00    +0.167 C 
ATOM     14  C   UNL     1      11.250 -10.070   1.710  1.00  0.00    +0.139 C 
BRANCH  10  15
ATOM     15  C   UNL     1      13.678 -10.908  -0.953  1.00  0.00    +0.191 C 
BRANCH  15  16
ATOM     16  O   UNL     1      13.402  -9.524  -1.154  1.00  0.00    -0.394 OA
ATOM     17  H   UNL     1      14.259  -9.076  -1.269  1.00  0.00    +0.210 HD
ENDBRANCH  15  16
ENDBRANCH  10  15
BRANCH  11  18
ATOM     18  O   UNL     1      13.842 -12.827   1.294  1.00  0.00    -0.388 OA
ATOM     19  H   UNL     1      14.049 -12.725   2.241  1.00  0.00    +0.211 HD
ENDBRANCH  11  18
BRANCH  13  20
ATOM     20  O   UNL     1      12.206 -11.600   3.361  1.00  0.00    -0.388 OA
ATOM     21  H   UNL     1      11.635 -12.372   3.187  1.00  0.00    +0.211 HD
ENDBRANCH  13  20
BRANCH  14  22
ATOM     22  N   UNL     1      11.756  -8.699   1.401  1.00  0.00    -0.321 NA
ATOM     23  H   UNL     1      12.629  -8.841   0.867  1.00  0.00    +0.119 HD
ATOM     24  H   UNL     1      11.116  -8.307   0.687  1.00  0.00    +0.119 HD
ENDBRANCH  14  22
ENDBRANCH   8   9
ENDBRANCH   7   8
ENDBRANCH   1   7
BRANCH   2  25
ATOM     25  O   UNL     1      10.892  -7.096  -0.982  1.00  0.00    -0.342 OA
BRANCH  25  26
ATOM     26  C   UNL     1      11.274  -5.845  -0.396  1.00  0.00    +0.270 C 
ATOM     27  C   UNL     1      12.770  -5.579  -0.756  1.00  0.00    +0.139 C 
ATOM     28  O   UNL     1      11.095  -5.880   1.017  1.00  0.00    -0.342 OA
ATOM     29  C   UNL     1      13.257  -4.257  -0.098  1.00  0.00    +0.167 C 
ATOM     30  C   UNL     1      11.543  -4.712   1.719  1.00  0.00    +0.178 C 
ATOM     31  C   UNL     1      12.189  -3.643   0.814  1.00  0.00    +0.176 C 
BRANCH  27  32
ATOM     32  N   UNL     1      13.626  -6.753  -0.442  1.00  0.00    -0.321 NA
ATOM     33  H   UNL     1      13.055  -7.410   0.100  1.00  0.00    +0.119 HD
ATOM     34  H   UNL     1      13.791  -7.240  -1.326  1.00  0.00    +0.119 HD
ENDBRANCH  27  32
BRANCH  29  35
ATOM     35  O   UNL     1      14.464  -4.415   0.677  1.00  0.00    -0.388 OA
ATOM     36  H   UNL     1      14.202  -4.175   1.591  1.00  0.00    +0.211 HD
ENDBRANCH  29  35
BRANCH  30  37
ATOM     37  C   UNL     1      12.402  -5.162   2.919  1.00  0.00    +0.191 C 
BRANCH  37  38
ATOM     38  O   UNL     1      13.189  -6.323   2.665  1.00  0.00    -0.394 OA
ATOM     39  H   UNL     1      13.918  -6.054   2.060  1.00  0.00    +0.210 HD
ENDBRANCH  37  38
ENDBRANCH  30  37
BRANCH  31  40
ATOM     40  O   UNL     1      12.762  -2.561   1.555  1.00  0.00    -0.388 OA
ATOM     41  H   UNL     1      13.665  -2.412   1.216  1.00  0.00    +0.211 HD
ENDBRANCH  31  40
ENDBRANCH  25  26
ENDBRANCH   2  25
BRANCH   3  42
ATOM     42  O   UNL     1      11.045  -6.045  -3.606  1.00  0.00    -0.343 OA
BRANCH  42  43
ATOM     43  C   UNL     1      11.810  -6.243  -4.801  1.00  0.00    +0.270 C 
ATOM     44  C   UNL     1      13.283  -6.465  -4.369  1.00  0.00    +0.139 C 
ATOM     45  O   UNL     1      11.657  -5.086  -5.628  1.00  0.00    -0.342 OA
ATOM     46  C   UNL     1      14.224  -6.427  -5.582  1.00  0.00    +0.167 C 
ATOM     47  C   UNL     1      12.484  -5.062  -6.796  1.00  0.00    +0.178 C 
ATOM     48  C   UNL     1      13.971  -5.167  -6.412  1.00  0.00    +0.176 C 
BRANCH  44  49
ATOM     49  N   UNL     1      13.455  -7.744  -3.637  1.00  0.00    -0.321 NA
ATOM     50  H   UNL     1      13.902  -8.412  -4.266  1.00  0.00    +0.119 HD
ATOM     51  H   UNL     1      12.516  -8.105  -3.441  1.00  0.00    +0.119 HD
ENDBRANCH  44  49
BRANCH  46  52
ATOM     52  O   UNL     1      15.592  -6.431  -5.136  1.00  0.00    -0.388 OA
ATOM     53  H   UNL     1      16.126  -6.416  -5.957  1.00  0.00    +0.211 HD
ENDBRANCH  46  52
BRANCH  47  54
ATOM     54  C   UNL     1      12.013  -6.083  -7.848  1.00  0.00    +0.191 C 
BRANCH  54  55
ATOM     55  O   UNL     1      10.629  -5.908  -8.132  1.00  0.00    -0.394 OA
ATOM     56  H   UNL     1      10.366  -5.046  -7.753  1.00  0.00    +0.210 HD
ENDBRANCH  54  55
ENDBRANCH  47  54
BRANCH  48  57
ATOM     57  O   UNL     1      14.869  -5.159  -7.528  1.00  0.00    -0.388 OA
ATOM     58  H   UNL     1      15.694  -4.704  -7.244  1.00  0.00    +0.211 HD
ENDBRANCH  48  57
ENDBRANCH  42  43
ENDBRANCH   3  42
BRANCH   5  59
ATOM     59  O   UNL     1       6.795  -8.314  -4.531  1.00  0.00    -0.320 OA
BRANCH  59  60
ATOM     60  C   UNL     1       5.577  -8.014  -3.846  1.00  0.00    +0.273 C 
ATOM     61  C   UNL     1       4.655  -7.088  -4.693  1.00  0.00    +0.140 C 
ATOM     62  O   UNL     1       4.948  -9.286  -3.625  1.00  0.00    -0.342 OA
ATOM     63  C   UNL     1       3.276  -6.977  -4.010  1.00  0.00    +0.174 C 
ATOM     64  C   UNL     1       3.704  -9.182  -2.914  1.00  0.00    +0.178 C 
ATOM     65  C   UNL     1       2.693  -8.364  -3.718  1.00  0.00    +0.176 C 
BRANCH  61  66
ATOM     66  N   UNL     1       5.205  -5.732  -4.891  1.00  0.00    -0.321 NA
ATOM     67  H   UNL     1       5.143  -5.219  -4.001  1.00  0.00    +0.119 HD
ATOM     68  H   UNL     1       4.588  -5.222  -5.540  1.00  0.00    +0.119 HD
ENDBRANCH  61  66
BRANCH  63  69
ATOM     69  O   UNL     1       2.340  -6.302  -4.876  1.00  0.00    -0.343 OA
BRANCH  69  70
ATOM     70  C   UNL     1       1.934  -5.033  -4.358  1.00  0.00    +0.270 C 
ATOM     71  C   UNL     1       1.779  -4.025  -5.535  1.00  0.00    +0.139 C 
ATOM     72  O   UNL     1       0.733  -5.221  -3.594  1.00  0.00    -0.342 OA
ATOM     73  C   UNL     1       0.721  -2.993  -5.131  1.00  0.00    +0.167 C 
ATOM     74  C   UNL     1      -0.460  -5.128  -4.390  1.00  0.00    +0.178 C 
ATOM     75  C   UNL     1      -0.637  -3.683  -4.919  1.00  0.00    +0.176 C 
BRANCH  71  76
ATOM     76  N   UNL     1       3.057  -3.377  -5.932  1.00  0.00    -0.321 NA
ATOM     77  H   UNL     1       3.732  -4.141  -6.054  1.00  0.00    +0.119 HD
ATOM     78  H   UNL     1       2.942  -3.003  -6.887  1.00  0.00    +0.119 HD
ENDBRANCH  71  76
BRANCH  73  79
ATOM     79  O   UNL     1       0.586  -1.978  -6.140  1.00  0.00    -0.388 OA
ATOM     80  H   UNL     1       1.306  -2.158  -6.776  1.00  0.00    +0.211 HD
ENDBRANCH  73  79
BRANCH  74  81
ATOM     81  C   UNL     1      -1.639  -5.643  -3.553  1.00  0.00    +0.191 C 
BRANCH  81  82
ATOM     82  O   UNL     1      -1.662  -5.022  -2.264  1.00  0.00    -0.394 OA
ATOM     83  H   UNL     1      -2.488  -4.508  -2.215  1.00  0.00    +0.210 HD
ENDBRANCH  81  82
ENDBRANCH  74  81
BRANCH  75  84
ATOM     84  O   UNL     1      -1.414  -2.816  -4.081  1.00  0.00    -0.388 OA
ATOM     85  H   UNL     1      -1.413  -3.210  -3.179  1.00  0.00    +0.211 HD
ENDBRANCH  75  84
ENDBRANCH  69  70
ENDBRANCH  63  69
BRANCH  64  86
ATOM     86  C   UNL     1       3.203 -10.607  -2.666  1.00  0.00    +0.191 C 
BRANCH  86  87
ATOM     87  O   UNL     1       3.538 -11.429  -3.791  1.00  0.00    -0.394 OA
ATOM     88  H   UNL     1       3.628 -12.329  -3.421  1.00  0.00    +0.210 HD
ENDBRANCH  86  87
ENDBRANCH  64  86
BRANCH  65  89
ATOM     89  O   UNL     1       1.467  -8.220  -2.990  1.00  0.00    -0.388 OA
ATOM     90  H   UNL     1       1.620  -8.658  -2.127  1.00  0.00    +0.211 HD
ENDBRANCH  65  89
ENDBRANCH  59  60
ENDBRANCH   5  59
BRANCH   4  91
ATOM     91  N   UNL     1       8.223  -5.850  -4.236  1.00  0.00    -0.321 NA
ATOM     92  H   UNL     1       7.485  -5.899  -4.943  1.00  0.00    +0.119 HD
ATOM     93  H   UNL     1       8.910  -5.164  -4.558  1.00  0.00    +0.119 HD
ENDBRANCH   4  91
TORSDOF 36
ENDMDL
MODEL 9
REMARK VINA RESULT:    -6.798      3.973      8.847
REMARK INTER + INTRA:         -22.802
REMARK INTER:                 -16.331
REMARK INTRA:                  -6.471
REMARK UNBOUND:                -5.672
REMARK SMILES N[C@@H]1[C@@H](O[C@@H]2[C@H](N)[C@H](O[C@@H]3O[C@H](CO)[C@@H](O)[C@H](O[C@@H]4O[C@@H](CO)[C@@H](O)[C@H](O)[C@H]4N)[C@H]3N)O[C@@H](CO[C@H]3O[C@@H](CO)[C@@H](O)[C@H](O)[C@H]3N)[C@H]2O[C@H]2O[C@@H](CO)[C@@H](O)[C@@H](O)[C@H]2N)O[C@H](CO)[C@H](O)[C@H]1O
REMARK SMILES IDX 33 1 47 2 5 3 6 4 8 5 32 6 34 7 35 8 36 9 38 10 41 11 37 12
REMARK SMILES IDX 43 13 45 14 39 15 40 16 42 18 44 20 46 22 48 25 49 26 58 27
REMARK SMILES IDX 50 28 56 29 51 30 54 31 59 32 57 35 52 37 53 38 55 40 4 42
REMARK SMILES IDX 3 43 2 44 60 45 66 46 61 47 64 48 1 49 67 52 62 54 63 55
REMARK SMILES IDX 65 57 9 59 10 60 30 61 11 62 17 63 12 64 15 65 31 66 18 69
REMARK SMILES IDX 19 70 28 71 20 72 26 73 21 74 24 75 29 76 27 79 22 81 23 82
REMARK SMILES IDX 25 84 13 86 14 87 16 89 7 91
REMARK H PARENT 40 17 42 19 44 21 46 23 46 24 59 33 59 34 57 36 53 39 55 41
REMARK H PARENT 1 50 1 51 67 53 63 56 65 58 31 67 31 68 29 77 29 78 27 80
REMARK H PARENT 23 83 25 85 14 88 16 90 7 92 7 93
ROOT
ATOM      1  C   UNL     1      -3.264  -9.694  -4.442  1.00  0.00    +0.179 C 
ATOM      2  C   UNL     1      -3.804  -9.650  -5.887  1.00  0.00    +0.183 C 
ATOM      3  C   UNL     1      -5.285  -9.223  -5.919  1.00  0.00    +0.175 C 
ATOM      4  C   UNL     1      -5.472  -7.911  -5.127  1.00  0.00    +0.140 C 
ATOM      5  C   UNL     1      -4.910  -8.106  -3.690  1.00  0.00    +0.273 C 
ATOM      6  O   UNL     1      -3.536  -8.467  -3.739  1.00  0.00    -0.342 OA
ENDROOT
BRANCH   1   7
ATOM      7  C   UNL     1      -3.747 -10.935  -3.652  1.00  0.00    +0.198 C 
BRANCH   7   8
ATOM      8  O   UNL     1      -4.388 -10.549  -2.431  1.00  0.00    -0.348 OA
BRANCH   8   9
ATOM      9  C   UNL     1      -5.469 -11.423  -2.074  1.00  0.00    +0.270 C 
ATOM     10  C   UNL     1      -6.123 -13.747  -1.975  1.00  0.00    +0.178 C 
ATOM     11  C   UNL     1      -7.347 -13.144  -1.265  1.00  0.00    +0.176 C 
ATOM     12  O   UNL     1      -5.139 -12.779  -2.362  1.00  0.00    -0.342 OA
ATOM     13  C   UNL     1      -6.947 -12.171  -0.146  1.00  0.00    +0.167 C 
ATOM     14  C   UNL     1      -5.788 -11.235  -0.559  1.00  0.00    +0.139 C 
BRANCH  10  15
ATOM     15  C   UNL     1      -5.413 -14.862  -1.189  1.00  0.00    +0.191 C 
BRANCH  15  16
ATOM     16  O   UNL     1      -4.139 -14.440  -0.708  1.00  0.00    -0.394 OA
ATOM     17  H   UNL     1      -3.497 -14.602  -1.422  1.00  0.00    +0.210 HD
ENDBRANCH  15  16
ENDBRANCH  10  15
BRANCH  11  18
ATOM     18  O   UNL     1      -8.248 -14.134  -0.754  1.00  0.00    -0.388 OA
ATOM     19  H   UNL     1      -8.264 -14.870  -1.393  1.00  0.00    +0.211 HD
ENDBRANCH  11  18
BRANCH  13  20
ATOM     20  O   UNL     1      -8.110 -11.387   0.190  1.00  0.00    -0.388 OA
ATOM     21  H   UNL     1      -7.780 -10.472   0.276  1.00  0.00    +0.211 HD
ENDBRANCH  13  20
BRANCH  14  22
ATOM     22  N   UNL     1      -4.583 -11.507   0.283  1.00  0.00    -0.321 NA
ATOM     23  H   UNL     1      -4.576 -10.765   1.002  1.00  0.00    +0.119 HD
ATOM     24  H   UNL     1      -4.801 -12.355   0.836  1.00  0.00    +0.119 HD
ENDBRANCH  14  22
ENDBRANCH   8   9
ENDBRANCH   7   8
ENDBRANCH   1   7
BRANCH   2  25
ATOM     25  O   UNL     1      -3.684 -10.950  -6.493  1.00  0.00    -0.342 OA
BRANCH  25  26
ATOM     26  C   UNL     1      -2.390 -11.164  -7.072  1.00  0.00    +0.270 C 
ATOM     27  C   UNL     1      -2.024  -9.904  -7.918  1.00  0.00    +0.139 C 
ATOM     28  O   UNL     1      -2.395 -12.333  -7.887  1.00  0.00    -0.342 OA
ATOM     29  C   UNL     1      -0.650 -10.103  -8.617  1.00  0.00    +0.167 C 
ATOM     30  C   UNL     1      -1.176 -12.588  -8.598  1.00  0.00    +0.178 C 
ATOM     31  C   UNL     1      -0.089 -11.512  -8.389  1.00  0.00    +0.176 C 
BRANCH  27  32
ATOM     32  N   UNL     1      -3.120  -9.532  -8.851  1.00  0.00    -0.321 NA
ATOM     33  H   UNL     1      -3.763 -10.330  -8.898  1.00  0.00    +0.119 HD
ATOM     34  H   UNL     1      -3.665  -8.802  -8.387  1.00  0.00    +0.119 HD
ENDBRANCH  27  32
BRANCH  29  35
ATOM     35  O   UNL     1      -0.692  -9.868 -10.040  1.00  0.00    -0.388 OA
ATOM     36  H   UNL     1      -1.578  -9.480 -10.199  1.00  0.00    +0.211 HD
ENDBRANCH  29  35
BRANCH  30  37
ATOM     37  C   UNL     1      -1.523 -12.892 -10.070  1.00  0.00    +0.191 C 
BRANCH  37  38
ATOM     38  O   UNL     1      -2.647 -12.166 -10.563  1.00  0.00    -0.394 OA
ATOM     39  H   UNL     1      -2.427 -11.209 -10.495  1.00  0.00    +0.210 HD
ENDBRANCH  37  38
ENDBRANCH  30  37
BRANCH  31  40
ATOM     40  O   UNL     1       1.055 -11.710  -9.226  1.00  0.00    -0.388 OA
ATOM     41  H   UNL     1       1.725 -11.046  -8.977  1.00  0.00    +0.211 HD
ENDBRANCH  31  40
ENDBRANCH  25  26
ENDBRANCH   2  25
BRANCH   3  42
ATOM     42  O   UNL     1      -5.688  -9.121  -7.302  1.00  0.00    -0.343 OA
BRANCH  42  43
ATOM     43  C   UNL     1      -6.784  -9.969  -7.664  1.00  0.00    +0.270 C 
ATOM     44  C   UNL     1      -6.458 -10.568  -9.057  1.00  0.00    +0.139 C 
ATOM     45  O   UNL     1      -7.976  -9.178  -7.680  1.00  0.00    -0.342 OA
ATOM     46  C   UNL     1      -7.682 -11.283  -9.648  1.00  0.00    +0.167 C 
ATOM     47  C   UNL     1      -9.141  -9.848  -8.173  1.00  0.00    +0.178 C 
ATOM     48  C   UNL     1      -8.907 -10.367  -9.603  1.00  0.00    +0.176 C 
BRANCH  44  49
ATOM     49  N   UNL     1      -5.308 -11.503  -8.998  1.00  0.00    -0.321 NA
ATOM     50  H   UNL     1      -5.377 -12.038  -8.132  1.00  0.00    +0.119 HD
ATOM     51  H   UNL     1      -4.460 -10.931  -8.925  1.00  0.00    +0.119 HD
ENDBRANCH  44  49
BRANCH  46  52
ATOM     52  O   UNL     1      -7.417 -11.650 -11.014  1.00  0.00    -0.388 OA
ATOM     53  H   UNL     1      -6.763 -10.994 -11.330  1.00  0.00    +0.211 HD
ENDBRANCH  46  52
BRANCH  47  54
ATOM     54  C   UNL     1      -9.655 -10.905  -7.177  1.00  0.00    +0.191 C 
BRANCH  54  55
ATOM     55  O   UNL     1     -11.025 -11.202  -7.424  1.00  0.00    -0.394 OA
ATOM     56  H   UNL     1     -11.547 -10.447  -7.087  1.00  0.00    +0.210 HD
ENDBRANCH  54  55
ENDBRANCH  47  54
BRANCH  48  57
ATOM     57  O   UNL     1     -10.025 -11.061 -10.169  1.00  0.00    -0.388 OA
ATOM     58  H   UNL     1      -9.695 -11.914 -10.530  1.00  0.00    +0.211 HD
ENDBRANCH  48  57
ENDBRANCH  42  43
ENDBRANCH   3  42
BRANCH   5  59
ATOM     59  O   UNL     1      -5.076  -6.874  -2.985  1.00  0.00    -0.320 OA
BRANCH  59  60
ATOM     60  C   UNL     1      -3.855  -6.307  -2.507  1.00  0.00    +0.273 C 
ATOM     61  C   UNL     1      -2.926  -7.389  -1.882  1.00  0.00    +0.140 C 
ATOM     62  O   UNL     1      -3.237  -5.718  -3.661  1.00  0.00    -0.342 OA
ATOM     63  C   UNL     1      -1.544  -6.768  -1.586  1.00  0.00    +0.174 C 
ATOM     64  C   UNL     1      -1.991  -5.067  -3.361  1.00  0.00    +0.178 C 
ATOM     65  C   UNL     1      -0.974  -6.076  -2.828  1.00  0.00    +0.176 C 
BRANCH  61  66
ATOM     66  N   UNL     1      -3.463  -7.981  -0.641  1.00  0.00    -0.321 NA
ATOM     67  H   UNL     1      -3.654  -7.224   0.029  1.00  0.00    +0.119 HD
ATOM     68  H   UNL     1      -2.723  -8.549  -0.203  1.00  0.00    +0.119 HD
ENDBRANCH  61  66
BRANCH  63  69
ATOM     69  O   UNL     1      -0.604  -7.794  -1.206  1.00  0.00    -0.343 OA
BRANCH  69  70
ATOM     70  C   UNL     1      -0.450  -8.795  -2.215  1.00  0.00    +0.270 C 
ATOM     71  C   UNL     1       1.064  -8.966  -2.541  1.00  0.00    +0.139 C 
ATOM     72  O   UNL     1      -1.083  -9.999  -1.756  1.00  0.00    -0.342 OA
ATOM     73  C   UNL     1       1.282 -10.410  -3.006  1.00  0.00    +0.167 C 
ATOM     74  C   UNL     1      -0.209 -10.834  -0.981  1.00  0.00    +0.178 C 
ATOM     75  C   UNL     1       0.928 -11.390  -1.874  1.00  0.00    +0.176 C 
BRANCH  71  76
ATOM     76  N   UNL     1       1.570  -7.984  -3.535  1.00  0.00    -0.321 NA
ATOM     77  H   UNL     1       2.052  -8.537  -4.253  1.00  0.00    +0.119 HD
ATOM     78  H   UNL     1       0.758  -7.593  -4.038  1.00  0.00    +0.119 HD
ENDBRANCH  71  76
BRANCH  73  79
ATOM     79  O   UNL     1       2.647 -10.617  -3.406  1.00  0.00    -0.388 OA
ATOM     80  H   UNL     1       2.595 -10.902  -4.339  1.00  0.00    +0.211 HD
ENDBRANCH  73  79
BRANCH  74  81
ATOM     81  C   UNL     1      -1.057 -11.914  -0.295  1.00  0.00    +0.191 C 
BRANCH  81  82
ATOM     82  O   UNL     1      -2.141 -12.323  -1.134  1.00  0.00    -0.394 OA
ATOM     83  H   UNL     1      -2.470 -11.521  -1.579  1.00  0.00    +0.210 HD
ENDBRANCH  81  82
ENDBRANCH  74  81
BRANCH  75  84
ATOM     84  O   UNL     1       0.657 -12.654  -2.494  1.00  0.00    -0.388 OA
ATOM     85  H   UNL     1       0.986 -12.598  -3.420  1.00  0.00    +0.211 HD
ENDBRANCH  75  84
ENDBRANCH  69  70
ENDBRANCH  63  69
BRANCH  64  86
ATOM     86  C   UNL     1      -1.503  -4.407  -4.654  1.00  0.00    +0.191 C 
BRANCH  86  87
ATOM     87  O   UNL     1      -2.613  -4.221  -5.539  1.00  0.00    -0.394 OA
ATOM     88  H   UNL     1      -2.971  -5.120  -5.680  1.00  0.00    +0.210 HD
ENDBRANCH  86  87
ENDBRANCH  64  86
BRANCH  65  89
ATOM     89  O   UNL     1       0.254  -5.422  -2.486  1.00  0.00    -0.388 OA
ATOM     90  H   UNL     1       0.595  -5.895  -1.700  1.00  0.00    +0.211 HD
ENDBRANCH  65  89
ENDBRANCH  59  60
ENDBRANCH   5  59
BRANCH   4  91
ATOM     91  N   UNL     1      -4.844  -6.768  -5.836  1.00  0.00    -0.321 NA
ATOM     92  H   UNL     1      -3.979  -6.533  -5.343  1.00  0.00    +0.119 HD
ATOM     93  H   UNL     1      -5.473  -5.966  -5.752  1.00  0.00    +0.119 HD
ENDBRANCH   4  91
TORSDOF 36
ENDMDL
