MODEL 1
REMARK VINA RESULT:    -6.699      0.000      0.000
REMARK INTER + INTRA:         -19.029
REMARK INTER:                 -15.120
REMARK INTRA:                  -3.909
REMARK UNBOUND:                -3.909
REMARK SMILES OC[C@H]1O[C@H](O[C@H]2[C@H](O)[C@H](O)[C@H](O[C@@H]3[C@@H](O)[C@H](O)[C@H](O[C@@H]4[C@H](O)[C@@H](O)[C@@H](O[C@@H]5[C@@H](O)[C@@H](O)[C@H](O)O[C@@H]5CO)O[C@@H]4CO)O[C@@H]3CO)O[C@@H]2CO)[C@H](O)[C@H](O)[C@H]1O
REMARK SMILES IDX 14 1 44 2 43 3 19 4 17 5 15 6 13 7 12 8 7 9 48 10 8 11 47 12
REMARK SMILES IDX 10 13 6 14 5 15 3 16 55 17 4 18 53 19 51 20 2 21 1 22 56 24
REMARK SMILES IDX 54 26 52 28 49 30 50 31 9 33 11 35 45 37 46 38 16 40 18 42
REMARK SMILES IDX 20 44 21 45 40 46 22 47 39 48 24 49 26 50 41 51 42 52 23 54
REMARK SMILES IDX 25 56 27 58 28 59 36 60 29 61 35 62 31 63 33 64 37 65 38 66
REMARK SMILES IDX 30 68 32 70 34 72
REMARK H PARENT 1 23 56 25 54 27 52 29 50 32 9 34 11 36 46 39 16 41 18 43
REMARK H PARENT 42 53 23 55 25 57 38 67 30 69 32 71 34 73
ROOT
ATOM      1  C   UNL     1       6.632  -8.178 -10.191  1.00  0.00    +0.184 C 
ATOM      2  C   UNL     1       7.521  -7.912 -11.417  1.00  0.00    +0.178 C 
ATOM      3  O   UNL     1       8.440  -8.989 -11.682  1.00  0.00    -0.341 OA
ATOM      4  C   UNL     1       9.242  -9.436 -10.586  1.00  0.00    +0.282 C 
ATOM      5  C   UNL     1       8.402  -9.729  -9.327  1.00  0.00    +0.202 C 
ATOM      6  C   UNL     1       7.490  -8.552  -8.979  1.00  0.00    +0.180 C 
ENDROOT
BRANCH   1   7
ATOM      7  O   UNL     1       5.853  -7.008  -9.892  1.00  0.00    -0.341 OA
BRANCH   7   8
ATOM      8  C   UNL     1       4.570  -7.334  -9.342  1.00  0.00    +0.282 C 
ATOM      9  C   UNL     1       2.273  -5.467  -9.081  1.00  0.00    +0.184 C 
ATOM     10  C   UNL     1       2.907  -5.916 -10.422  1.00  0.00    +0.178 C 
ATOM     11  C   UNL     1       2.874  -6.215  -7.875  1.00  0.00    +0.180 C 
ATOM     12  O   UNL     1       3.552  -7.195 -10.330  1.00  0.00    -0.341 OA
ATOM     13  C   UNL     1       4.355  -6.487  -8.071  1.00  0.00    +0.202 C 
BRANCH   9  14
ATOM     14  O   UNL     1       0.866  -5.798  -9.064  1.00  0.00    -0.341 OA
BRANCH  14  15
ATOM     15  C   UNL     1       0.468  -6.658 -10.132  1.00  0.00    +0.282 C 
ATOM     16  C   UNL     1       0.305  -8.978 -10.795  1.00  0.00    +0.178 C 
ATOM     17  C   UNL     1      -1.169  -8.798 -11.191  1.00  0.00    +0.177 C 
ATOM     18  O   UNL     1       0.704  -8.029  -9.795  1.00  0.00    -0.341 OA
ATOM     19  C   UNL     1      -1.461  -7.341 -11.572  1.00  0.00    +0.179 C 
ATOM     20  C   UNL     1      -1.024  -6.403 -10.448  1.00  0.00    +0.202 C 
BRANCH  16  21
ATOM     21  C   UNL     1       1.280  -8.969 -11.985  1.00  0.00    +0.191 C 
BRANCH  21  22
ATOM     22  O   UNL     1       2.530  -9.541 -11.605  1.00  0.00    -0.394 OA
ATOM     23  H   UNL     1       3.041  -9.710 -12.431  1.00  0.00    +0.210 HD
ENDBRANCH  21  22
ENDBRANCH  16  21
BRANCH  17  24
ATOM     24  O   UNL     1      -1.554  -9.639 -12.283  1.00  0.00    -0.387 OA
ATOM     25  H   UNL     1      -1.947 -10.446 -11.900  1.00  0.00    +0.211 HD
ENDBRANCH  17  24
BRANCH  19  26
ATOM     26  O   UNL     1      -2.872  -7.187 -11.803  1.00  0.00    -0.387 OA
ATOM     27  H   UNL     1      -3.265  -7.076 -10.914  1.00  0.00    +0.211 HD
ENDBRANCH  19  26
BRANCH  20  28
ATOM     28  O   UNL     1      -1.870  -6.650  -9.307  1.00  0.00    -0.385 OA
ATOM     29  H   UNL     1      -1.450  -6.157  -8.574  1.00  0.00    +0.211 HD
ENDBRANCH  20  28
ENDBRANCH  14  15
ENDBRANCH   9  14
BRANCH  10  30
ATOM     30  C   UNL     1       3.836  -4.869 -11.062  1.00  0.00    +0.191 C 
BRANCH  30  31
ATOM     31  O   UNL     1       3.758  -3.611 -10.396  1.00  0.00    -0.394 OA
ATOM     32  H   UNL     1       3.576  -3.807  -9.457  1.00  0.00    +0.210 HD
ENDBRANCH  30  31
ENDBRANCH  10  30
BRANCH  11  33
ATOM     33  O   UNL     1       2.700  -5.417  -6.687  1.00  0.00    -0.387 OA
ATOM     34  H   UNL     1       3.532  -5.522  -6.182  1.00  0.00    +0.211 HD
ENDBRANCH  11  33
BRANCH  13  35
ATOM     35  O   UNL     1       5.039  -5.216  -8.135  1.00  0.00    -0.385 OA
ATOM     36  H   UNL     1       5.925  -5.394  -7.758  1.00  0.00    +0.211 HD
ENDBRANCH  13  35
ENDBRANCH   7   8
ENDBRANCH   1   7
BRANCH   2  37
ATOM     37  C   UNL     1       8.232  -6.547 -11.388  1.00  0.00    +0.191 C 
BRANCH  37  38
ATOM     38  O   UNL     1       7.335  -5.518 -11.800  1.00  0.00    -0.394 OA
ATOM     39  H   UNL     1       7.686  -4.684 -11.438  1.00  0.00    +0.210 HD
ENDBRANCH  37  38
ENDBRANCH   2  37
BRANCH   6  40
ATOM     40  O   UNL     1       6.648  -8.923  -7.874  1.00  0.00    -0.387 OA
ATOM     41  H   UNL     1       5.821  -9.277  -8.259  1.00  0.00    +0.211 HD
ENDBRANCH   6  40
BRANCH   5  42
ATOM     42  O   UNL     1       9.210 -10.044  -8.184  1.00  0.00    -0.385 OA
ATOM     43  H   UNL     1       9.683  -9.229  -7.928  1.00  0.00    +0.211 HD
ENDBRANCH   5  42
BRANCH   4  44
ATOM     44  O   UNL     1      10.273  -8.479 -10.318  1.00  0.00    -0.341 OA
BRANCH  44  45
ATOM     45  C   UNL     1      11.608  -8.932 -10.653  1.00  0.00    +0.184 C 
ATOM     46  C   UNL     1      12.451  -7.832 -11.353  1.00  0.00    +0.178 C 
ATOM     47  C   UNL     1      12.265  -9.363  -9.314  1.00  0.00    +0.180 C 
ATOM     48  O   UNL     1      13.014  -6.939 -10.375  1.00  0.00    -0.341 OA
ATOM     49  C   UNL     1      13.761  -9.084  -9.313  1.00  0.00    +0.202 C 
ATOM     50  C   UNL     1      14.008  -7.572  -9.558  1.00  0.00    +0.282 C 
BRANCH  46  51
ATOM     51  C   UNL     1      11.654  -6.982 -12.344  1.00  0.00    +0.191 C 
BRANCH  51  52
ATOM     52  O   UNL     1      10.882  -7.827 -13.198  1.00  0.00    -0.394 OA
ATOM     53  H   UNL     1      10.732  -7.310 -14.012  1.00  0.00    +0.210 HD
ENDBRANCH  51  52
ENDBRANCH  46  51
BRANCH  47  54
ATOM     54  O   UNL     1      11.648  -8.711  -8.193  1.00  0.00    -0.387 OA
ATOM     55  H   UNL     1      10.713  -9.002  -8.192  1.00  0.00    +0.211 HD
ENDBRANCH  47  54
BRANCH  49  56
ATOM     56  O   UNL     1      14.383  -9.896 -10.324  1.00  0.00    -0.385 OA
ATOM     57  H   UNL     1      14.655 -10.723  -9.862  1.00  0.00    +0.211 HD
ENDBRANCH  49  56
BRANCH  50  58
ATOM     58  O   UNL     1      15.285  -7.443 -10.179  1.00  0.00    -0.341 OA
BRANCH  58  59
ATOM     59  C   UNL     1      16.239  -6.673  -9.447  1.00  0.00    +0.184 C 
ATOM     60  C   UNL     1      17.636  -7.322  -9.629  1.00  0.00    +0.178 C 
ATOM     61  C   UNL     1      16.269  -5.230  -9.963  1.00  0.00    +0.180 C 
ATOM     62  O   UNL     1      18.072  -7.251 -11.004  1.00  0.00    -0.342 OA
ATOM     63  C   UNL     1      16.830  -5.178 -11.385  1.00  0.00    +0.201 C 
ATOM     64  C   UNL     1      18.181  -5.909 -11.450  1.00  0.00    +0.279 C 
BRANCH  60  65
ATOM     65  C   UNL     1      17.647  -8.811  -9.241  1.00  0.00    +0.191 C 
BRANCH  65  66
ATOM     66  O   UNL     1      17.205  -9.641 -10.320  1.00  0.00    -0.394 OA
ATOM     67  H   UNL     1      16.455  -9.151 -10.715  1.00  0.00    +0.210 HD
ENDBRANCH  65  66
ENDBRANCH  60  65
BRANCH  61  68
ATOM     68  O   UNL     1      17.081  -4.422  -9.098  1.00  0.00    -0.387 OA
ATOM     69  H   UNL     1      16.587  -3.579  -9.011  1.00  0.00    +0.211 HD
ENDBRANCH  61  68
BRANCH  63  70
ATOM     70  O   UNL     1      16.982  -3.803 -11.774  1.00  0.00    -0.385 OA
ATOM     71  H   UNL     1      16.066  -3.472 -11.877  1.00  0.00    +0.211 HD
ENDBRANCH  63  70
BRANCH  64  72
ATOM     72  O   UNL     1      18.603  -5.927 -12.810  1.00  0.00    -0.366 OA
ATOM     73  H   UNL     1      17.979  -5.338 -13.269  1.00  0.00    +0.213 HD
ENDBRANCH  64  72
ENDBRANCH  58  59
ENDBRANCH  50  58
ENDBRANCH  44  45
ENDBRANCH   4  44
TORSDOF 30
ENDMDL
MODEL 2
REMARK VINA RESULT:    -6.486      7.895     11.861
REMARK INTER + INTRA:         -18.547
REMARK INTER:                 -14.062
REMARK INTRA:                  -4.485
REMARK UNBOUND:                -3.909
REMARK SMILES OC[C@H]1O[C@H](O[C@H]2[C@H](O)[C@H](O)[C@H](O[C@@H]3[C@@H](O)[C@H](O)[C@H](O[C@@H]4[C@H](O)[C@@H](O)[C@@H](O[C@@H]5[C@@H](O)[C@@H](O)[C@H](O)O[C@@H]5CO)O[C@@H]4CO)O[C@@H]3CO)O[C@@H]2CO)[C@H](O)[C@H](O)[C@H]1O
REMARK SMILES IDX 14 1 44 2 43 3 19 4 17 5 15 6 13 7 12 8 7 9 48 10 8 11 47 12
REMARK SMILES IDX 10 13 6 14 5 15 3 16 55 17 4 18 53 19 51 20 2 21 1 22 56 24
REMARK SMILES IDX 54 26 52 28 49 30 50 31 9 33 11 35 45 37 46 38 16 40 18 42
REMARK SMILES IDX 20 44 21 45 40 46 22 47 39 48 24 49 26 50 41 51 42 52 23 54
REMARK SMILES IDX 25 56 27 58 28 59 36 60 29 61 35 62 31 63 33 64 37 65 38 66
REMARK SMILES IDX 30 68 32 70 34 72
REMARK H PARENT 1 23 56 25 54 27 52 29 50 32 9 34 11 36 46 39 16 41 18 43
REMARK H PARENT 42 53 23 55 25 57 38 67 30 69 32 71 34 73
ROOT
ATOM      1  C   UNL     1       8.086 -11.908  -6.073  1.00  0.00    +0.184 C 
ATOM      2  C   UNL     1       6.874 -12.818  -5.817  1.00  0.00    +0.178 C 
ATOM      3  O   UNL     1       6.778 -13.246  -4.445  1.00  0.00    -0.341 OA
ATOM      4  C   UNL     1       7.952 -13.824  -3.868  1.00  0.00    +0.282 C 
ATOM      5  C   UNL     1       9.202 -12.949  -4.084  1.00  0.00    +0.202 C 
ATOM      6  C   UNL     1       9.368 -12.566  -5.555  1.00  0.00    +0.180 C 
ENDROOT
BRANCH   1   7
ATOM      7  O   UNL     1       8.210 -11.645  -7.480  1.00  0.00    -0.341 OA
BRANCH   7   8
ATOM      8  C   UNL     1       8.328 -10.244  -7.765  1.00  0.00    +0.282 C 
ATOM      9  C   UNL     1       6.583  -8.697  -9.605  1.00  0.00    +0.184 C 
ATOM     10  C   UNL     1       6.108  -9.397  -8.306  1.00  0.00    +0.178 C 
ATOM     11  C   UNL     1       8.113  -8.764  -9.776  1.00  0.00    +0.180 C 
ATOM     12  O   UNL     1       7.159  -9.547  -7.341  1.00  0.00    -0.341 OA
ATOM     13  C   UNL     1       8.673 -10.078  -9.258  1.00  0.00    +0.202 C 
BRANCH   9  14
ATOM     14  O   UNL     1       6.273  -7.286  -9.549  1.00  0.00    -0.341 OA
BRANCH  14  15
ATOM     15  C   UNL     1       4.970  -7.007  -9.035  1.00  0.00    +0.282 C 
ATOM     16  C   UNL     1       3.641  -5.312  -7.937  1.00  0.00    +0.178 C 
ATOM     17  C   UNL     1       2.539  -5.437  -9.001  1.00  0.00    +0.177 C 
ATOM     18  O   UNL     1       4.922  -5.700  -8.454  1.00  0.00    -0.341 OA
ATOM     19  C   UNL     1       2.549  -6.831  -9.640  1.00  0.00    +0.179 C 
ATOM     20  C   UNL     1       3.941  -7.155 -10.180  1.00  0.00    +0.202 C 
BRANCH  16  21
ATOM     21  C   UNL     1       3.330  -6.048  -6.622  1.00  0.00    +0.191 C 
BRANCH  21  22
ATOM     22  O   UNL     1       2.347  -5.334  -5.875  1.00  0.00    -0.394 OA
ATOM     23  H   UNL     1       2.491  -4.373  -6.038  1.00  0.00    +0.210 HD
ENDBRANCH  21  22
ENDBRANCH  16  21
BRANCH  17  24
ATOM     24  O   UNL     1       1.232  -5.188  -8.473  1.00  0.00    -0.387 OA
ATOM     25  H   UNL     1       1.064  -4.231  -8.560  1.00  0.00    +0.211 HD
ENDBRANCH  17  24
BRANCH  19  26
ATOM     26  O   UNL     1       1.598  -6.863 -10.719  1.00  0.00    -0.387 OA
ATOM     27  H   UNL     1       1.977  -6.283 -11.410  1.00  0.00    +0.211 HD
ENDBRANCH  19  26
BRANCH  20  28
ATOM     28  O   UNL     1       4.215  -6.258 -11.274  1.00  0.00    -0.385 OA
ATOM     29  H   UNL     1       5.186  -6.288 -11.384  1.00  0.00    +0.211 HD
ENDBRANCH  20  28
ENDBRANCH  14  15
ENDBRANCH   9  14
BRANCH  10  30
ATOM     30  C   UNL     1       5.372 -10.728  -8.541  1.00  0.00    +0.191 C 
BRANCH  30  31
ATOM     31  O   UNL     1       5.342 -11.084  -9.921  1.00  0.00    -0.394 OA
ATOM     32  H   UNL     1       5.769 -10.351 -10.403  1.00  0.00    +0.210 HD
ENDBRANCH  30  31
ENDBRANCH  10  30
BRANCH  11  33
ATOM     33  O   UNL     1       8.442  -8.636 -11.173  1.00  0.00    -0.387 OA
ATOM     34  H   UNL     1       9.117  -9.324 -11.343  1.00  0.00    +0.211 HD
ENDBRANCH  11  33
BRANCH  13  35
ATOM     35  O   UNL     1       8.133 -11.145 -10.069  1.00  0.00    -0.385 OA
ATOM     36  H   UNL     1       7.781 -11.792  -9.424  1.00  0.00    +0.211 HD
ENDBRANCH  13  35
ENDBRANCH   7   8
ENDBRANCH   1   7
BRANCH   2  37
ATOM     37  C   UNL     1       6.765 -14.002  -6.795  1.00  0.00    +0.191 C 
BRANCH  37  38
ATOM     38  O   UNL     1       6.323 -13.544  -8.072  1.00  0.00    -0.394 OA
ATOM     39  H   UNL     1       5.435 -13.163  -7.937  1.00  0.00    +0.210 HD
ENDBRANCH  37  38
ENDBRANCH   2  37
BRANCH   6  40
ATOM     40  O   UNL     1      10.475 -11.658  -5.681  1.00  0.00    -0.387 OA
ATOM     41  H   UNL     1      10.741 -11.670  -6.623  1.00  0.00    +0.211 HD
ENDBRANCH   6  40
BRANCH   5  42
ATOM     42  O   UNL     1      10.407 -13.584  -3.631  1.00  0.00    -0.385 OA
ATOM     43  H   UNL     1      10.457 -13.454  -2.664  1.00  0.00    +0.211 HD
ENDBRANCH   5  42
BRANCH   4  44
ATOM     44  O   UNL     1       8.143 -15.147  -4.380  1.00  0.00    -0.341 OA
BRANCH  44  45
ATOM     45  C   UNL     1       7.984 -16.197  -3.394  1.00  0.00    +0.184 C 
ATOM     46  C   UNL     1       6.930 -17.256  -3.816  1.00  0.00    +0.178 C 
ATOM     47  C   UNL     1       9.384 -16.847  -3.227  1.00  0.00    +0.180 C 
ATOM     48  O   UNL     1       7.519 -18.211  -4.718  1.00  0.00    -0.341 OA
ATOM     49  C   UNL     1       9.275 -18.336  -2.932  1.00  0.00    +0.202 C 
ATOM     50  C   UNL     1       8.501 -19.037  -4.080  1.00  0.00    +0.282 C 
BRANCH  46  51
ATOM     51  C   UNL     1       5.705 -16.662  -4.514  1.00  0.00    +0.191 C 
BRANCH  51  52
ATOM     52  O   UNL     1       5.119 -15.652  -3.692  1.00  0.00    -0.394 OA
ATOM     53  H   UNL     1       5.125 -16.015  -2.786  1.00  0.00    +0.210 HD
ENDBRANCH  51  52
ENDBRANCH  46  51
BRANCH  47  54
ATOM     54  O   UNL     1      10.200 -16.639  -4.390  1.00  0.00    -0.387 OA
ATOM     55  H   UNL     1       9.614 -16.783  -5.161  1.00  0.00    +0.211 HD
ENDBRANCH  47  54
BRANCH  49  56
ATOM     56  O   UNL     1       8.619 -18.508  -1.664  1.00  0.00    -0.385 OA
ATOM     57  H   UNL     1       8.873 -19.411  -1.361  1.00  0.00    +0.211 HD
ENDBRANCH  49  56
BRANCH  50  58
ATOM     58  O   UNL     1       7.867 -20.187  -3.527  1.00  0.00    -0.341 OA
BRANCH  58  59
ATOM     59  C   UNL     1       8.097 -21.406  -4.235  1.00  0.00    +0.184 C 
ATOM     60  C   UNL     1       8.327 -22.538  -3.201  1.00  0.00    +0.178 C 
ATOM     61  C   UNL     1       6.889 -21.748  -5.115  1.00  0.00    +0.180 C 
ATOM     62  O   UNL     1       7.140 -22.780  -2.415  1.00  0.00    -0.342 OA
ATOM     63  C   UNL     1       5.676 -22.097  -4.252  1.00  0.00    +0.201 C 
ATOM     64  C   UNL     1       6.047 -23.180  -3.226  1.00  0.00    +0.279 C 
BRANCH  60  65
ATOM     65  C   UNL     1       9.453 -22.205  -2.207  1.00  0.00    +0.191 C 
BRANCH  65  66
ATOM     66  O   UNL     1       8.986 -21.373  -1.141  1.00  0.00    -0.394 OA
ATOM     67  H   UNL     1       8.985 -20.469  -1.519  1.00  0.00    +0.210 HD
ENDBRANCH  65  66
ENDBRANCH  60  65
BRANCH  61  68
ATOM     68  O   UNL     1       7.207 -22.859  -5.966  1.00  0.00    -0.387 OA
ATOM     69  H   UNL     1       8.039 -23.225  -5.596  1.00  0.00    +0.211 HD
ENDBRANCH  61  68
BRANCH  63  70
ATOM     70  O   UNL     1       4.615 -22.555  -5.106  1.00  0.00    -0.385 OA
ATOM     71  H   UNL     1       4.982 -22.493  -6.012  1.00  0.00    +0.211 HD
ENDBRANCH  63  70
BRANCH  64  72
ATOM     72  O   UNL     1       4.920 -23.387  -2.381  1.00  0.00    -0.366 OA
ATOM     73  H   UNL     1       4.875 -22.587  -1.831  1.00  0.00    +0.213 HD
ENDBRANCH  64  72
ENDBRANCH  58  59
ENDBRANCH  50  58
ENDBRANCH  44  45
ENDBRANCH   4  44
TORSDOF 30
ENDMDL
MODEL 3
REMARK VINA RESULT:    -6.428      2.533      5.907
REMARK INTER + INTRA:         -18.416
REMARK INTER:                 -14.076
REMARK INTRA:                  -4.340
REMARK UNBOUND:                -3.909
REMARK SMILES OC[C@H]1O[C@H](O[C@H]2[C@H](O)[C@H](O)[C@H](O[C@@H]3[C@@H](O)[C@H](O)[C@H](O[C@@H]4[C@H](O)[C@@H](O)[C@@H](O[C@@H]5[C@@H](O)[C@@H](O)[C@H](O)O[C@@H]5CO)O[C@@H]4CO)O[C@@H]3CO)O[C@@H]2CO)[C@H](O)[C@H](O)[C@H]1O
REMARK SMILES IDX 14 1 44 2 43 3 19 4 17 5 15 6 13 7 12 8 7 9 48 10 8 11 47 12
REMARK SMILES IDX 10 13 6 14 5 15 3 16 55 17 4 18 53 19 51 20 2 21 1 22 56 24
REMARK SMILES IDX 54 26 52 28 49 30 50 31 9 33 11 35 45 37 46 38 16 40 18 42
REMARK SMILES IDX 20 44 21 45 40 46 22 47 39 48 24 49 26 50 41 51 42 52 23 54
REMARK SMILES IDX 25 56 27 58 28 59 36 60 29 61 35 62 31 63 33 64 37 65 38 66
REMARK SMILES IDX 30 68 32 70 34 72
REMARK H PARENT 1 23 56 25 54 27 52 29 50 32 9 34 11 36 46 39 16 41 18 43
REMARK H PARENT 42 53 23 55 25 57 38 67 30 69 32 71 34 73
ROOT
ATOM      1  C   UNL     1      10.675  -7.280 -11.001  1.00  0.00    +0.184 C 
ATOM      2  C   UNL     1      11.216  -7.747  -9.639  1.00  0.00    +0.178 C 
ATOM      3  O   UNL     1      12.250  -6.886  -9.125  1.00  0.00    -0.341 OA
ATOM      4  C   UNL     1      13.337  -6.590 -10.006  1.00  0.00    +0.282 C 
ATOM      5  C   UNL     1      12.856  -6.105 -11.387  1.00  0.00    +0.202 C 
ATOM      6  C   UNL     1      11.826  -7.062 -11.987  1.00  0.00    +0.180 C 
ENDROOT
BRANCH   1   7
ATOM      7  O   UNL     1       9.764  -8.259 -11.525  1.00  0.00    -0.341 OA
BRANCH   7   8
ATOM      8  C   UNL     1       8.652  -7.660 -12.203  1.00  0.00    +0.282 C 
ATOM      9  C   UNL     1       5.832  -8.585 -12.052  1.00  0.00    +0.184 C 
ATOM     10  C   UNL     1       6.656  -8.046 -10.856  1.00  0.00    +0.178 C 
ATOM     11  C   UNL     1       6.591  -8.456 -13.387  1.00  0.00    +0.180 C 
ATOM     12  O   UNL     1       7.706  -7.156 -11.262  1.00  0.00    -0.341 OA
ATOM     13  C   UNL     1       8.082  -8.686 -13.203  1.00  0.00    +0.202 C 
BRANCH   9  14
ATOM     14  O   UNL     1       4.634  -7.795 -12.225  1.00  0.00    -0.341 OA
BRANCH  14  15
ATOM     15  C   UNL     1       4.138  -7.237 -11.008  1.00  0.00    +0.282 C 
ATOM     16  C   UNL     1       3.553  -5.155  -9.925  1.00  0.00    +0.178 C 
ATOM     17  C   UNL     1       2.172  -5.706  -9.534  1.00  0.00    +0.177 C 
ATOM     18  O   UNL     1       4.072  -5.810 -11.093  1.00  0.00    -0.341 OA
ATOM     19  C   UNL     1       2.204  -7.235  -9.420  1.00  0.00    +0.179 C 
ATOM     20  C   UNL     1       2.750  -7.849 -10.708  1.00  0.00    +0.202 C 
BRANCH  16  21
ATOM     21  C   UNL     1       4.581  -5.167  -8.782  1.00  0.00    +0.191 C 
BRANCH  21  22
ATOM     22  O   UNL     1       5.836  -4.664  -9.237  1.00  0.00    -0.394 OA
ATOM     23  H   UNL     1       5.686  -3.746  -9.562  1.00  0.00    +0.210 HD
ENDBRANCH  21  22
ENDBRANCH  16  21
BRANCH  17  24
ATOM     24  O   UNL     1       1.694  -5.168  -8.297  1.00  0.00    -0.387 OA
ATOM     25  H   UNL     1       2.461  -4.776  -7.838  1.00  0.00    +0.211 HD
ENDBRANCH  17  24
BRANCH  19  26
ATOM     26  O   UNL     1       0.870  -7.719  -9.187  1.00  0.00    -0.387 OA
ATOM     27  H   UNL     1       0.347  -6.924  -8.958  1.00  0.00    +0.211 HD
ENDBRANCH  19  26
BRANCH  20  28
ATOM     28  O   UNL     1       1.803  -7.589 -11.763  1.00  0.00    -0.385 OA
ATOM     29  H   UNL     1       1.242  -8.389 -11.798  1.00  0.00    +0.211 HD
ENDBRANCH  20  28
ENDBRANCH  14  15
ENDBRANCH   9  14
BRANCH  10  30
ATOM     30  C   UNL     1       7.187  -9.140  -9.913  1.00  0.00    +0.191 C 
BRANCH  30  31
ATOM     31  O   UNL     1       8.035  -8.605  -8.900  1.00  0.00    -0.394 OA
ATOM     32  H   UNL     1       8.786  -8.187  -9.363  1.00  0.00    +0.210 HD
ENDBRANCH  30  31
ENDBRANCH  10  30
BRANCH  11  33
ATOM     33  O   UNL     1       6.082  -9.430 -14.320  1.00  0.00    -0.387 OA
ATOM     34  H   UNL     1       5.553 -10.052 -13.781  1.00  0.00    +0.211 HD
ENDBRANCH  11  33
BRANCH  13  35
ATOM     35  O   UNL     1       8.274 -10.048 -12.764  1.00  0.00    -0.385 OA
ATOM     36  H   UNL     1       8.545  -9.969 -11.826  1.00  0.00    +0.211 HD
ENDBRANCH  13  35
ENDBRANCH   7   8
ENDBRANCH   1   7
BRANCH   2  37
ATOM     37  C   UNL     1      11.637  -9.227  -9.610  1.00  0.00    +0.191 C 
BRANCH  37  38
ATOM     38  O   UNL     1      10.506 -10.053  -9.337  1.00  0.00    -0.394 OA
ATOM     39  H   UNL     1       9.887  -9.928 -10.079  1.00  0.00    +0.210 HD
ENDBRANCH  37  38
ENDBRANCH   2  37
BRANCH   6  40
ATOM     40  O   UNL     1      11.326  -6.504 -13.214  1.00  0.00    -0.387 OA
ATOM     41  H   UNL     1      11.026  -5.596 -13.006  1.00  0.00    +0.211 HD
ENDBRANCH   6  40
BRANCH   5  42
ATOM     42  O   UNL     1      13.933  -5.937 -12.321  1.00  0.00    -0.385 OA
ATOM     43  H   UNL     1      14.530  -5.255 -11.957  1.00  0.00    +0.211 HD
ENDBRANCH   5  42
BRANCH   4  44
ATOM     44  O   UNL     1      14.194  -7.731 -10.120  1.00  0.00    -0.341 OA
BRANCH  44  45
ATOM     45  C   UNL     1      15.509  -7.550  -9.536  1.00  0.00    +0.184 C 
ATOM     46  C   UNL     1      15.878  -8.681  -8.539  1.00  0.00    +0.178 C 
ATOM     47  C   UNL     1      16.507  -7.512 -10.725  1.00  0.00    +0.180 C 
ATOM     48  O   UNL     1      16.368  -9.831  -9.253  1.00  0.00    -0.341 OA
ATOM     49  C   UNL     1      17.847  -8.126 -10.346  1.00  0.00    +0.202 C 
ATOM     50  C   UNL     1      17.634  -9.591  -9.881  1.00  0.00    +0.282 C 
BRANCH  46  51
ATOM     51  C   UNL     1      14.707  -9.146  -7.673  1.00  0.00    +0.191 C 
BRANCH  51  52
ATOM     52  O   UNL     1      14.110  -8.024  -7.020  1.00  0.00    -0.394 OA
ATOM     53  H   UNL     1      14.458  -7.238  -7.481  1.00  0.00    +0.210 HD
ENDBRANCH  51  52
ENDBRANCH  46  51
BRANCH  47  54
ATOM     54  O   UNL     1      15.973  -8.181 -11.878  1.00  0.00    -0.387 OA
ATOM     55  H   UNL     1      16.687  -8.762 -12.208  1.00  0.00    +0.211 HD
ENDBRANCH  47  54
BRANCH  49  56
ATOM     56  O   UNL     1      18.448  -7.322  -9.316  1.00  0.00    -0.385 OA
ATOM     57  H   UNL     1      19.392  -7.225  -9.580  1.00  0.00    +0.211 HD
ENDBRANCH  49  56
BRANCH  50  58
ATOM     58  O   UNL     1      18.684  -9.906  -8.970  1.00  0.00    -0.341 OA
BRANCH  58  59
ATOM     59  C   UNL     1      19.161 -11.250  -9.037  1.00  0.00    +0.184 C 
ATOM     60  C   UNL     1      20.707 -11.229  -8.911  1.00  0.00    +0.178 C 
ATOM     61  C   UNL     1      18.563 -12.087  -7.901  1.00  0.00    +0.180 C 
ATOM     62  O   UNL     1      21.121 -10.748  -7.614  1.00  0.00    -0.342 OA
ATOM     63  C   UNL     1      19.098 -11.618  -6.547  1.00  0.00    +0.201 C 
ATOM     64  C   UNL     1      20.636 -11.575  -6.569  1.00  0.00    +0.279 C 
BRANCH  60  65
ATOM     65  C   UNL     1      21.367 -10.309  -9.953  1.00  0.00    +0.191 C 
BRANCH  65  66
ATOM     66  O   UNL     1      21.208  -8.928  -9.614  1.00  0.00    -0.394 OA
ATOM     67  H   UNL     1      22.086  -8.530  -9.786  1.00  0.00    +0.210 HD
ENDBRANCH  65  66
ENDBRANCH  60  65
BRANCH  61  68
ATOM     68  O   UNL     1      18.890 -13.471  -8.091  1.00  0.00    -0.387 OA
ATOM     69  H   UNL     1      19.347 -13.734  -7.263  1.00  0.00    +0.211 HD
ENDBRANCH  61  68
BRANCH  63  70
ATOM     70  O   UNL     1      18.634 -12.517  -5.527  1.00  0.00    -0.385 OA
ATOM     71  H   UNL     1      19.304 -13.231  -5.502  1.00  0.00    +0.211 HD
ENDBRANCH  63  70
BRANCH  64  72
ATOM     72  O   UNL     1      21.075 -11.030  -5.330  1.00  0.00    -0.366 OA
ATOM     73  H   UNL     1      21.958 -10.668  -5.520  1.00  0.00    +0.213 HD
ENDBRANCH  64  72
ENDBRANCH  58  59
ENDBRANCH  50  58
ENDBRANCH  44  45
ENDBRANCH   4  44
TORSDOF 30
ENDMDL
MODEL 4
REMARK VINA RESULT:    -6.129      6.118      9.378
REMARK INTER + INTRA:         -17.742
REMARK INTER:                 -13.540
REMARK INTRA:                  -4.202
REMARK UNBOUND:                -3.909
REMARK SMILES OC[C@H]1O[C@H](O[C@H]2[C@H](O)[C@H](O)[C@H](O[C@@H]3[C@@H](O)[C@H](O)[C@H](O[C@@H]4[C@H](O)[C@@H](O)[C@@H](O[C@@H]5[C@@H](O)[C@@H](O)[C@H](O)O[C@@H]5CO)O[C@@H]4CO)O[C@@H]3CO)O[C@@H]2CO)[C@H](O)[C@H](O)[C@H]1O
REMARK SMILES IDX 14 1 44 2 43 3 19 4 17 5 15 6 13 7 12 8 7 9 48 10 8 11 47 12
REMARK SMILES IDX 10 13 6 14 5 15 3 16 55 17 4 18 53 19 51 20 2 21 1 22 56 24
REMARK SMILES IDX 54 26 52 28 49 30 50 31 9 33 11 35 45 37 46 38 16 40 18 42
REMARK SMILES IDX 20 44 21 45 40 46 22 47 39 48 24 49 26 50 41 51 42 52 23 54
REMARK SMILES IDX 25 56 27 58 28 59 36 60 29 61 35 62 31 63 33 64 37 65 38 66
REMARK SMILES IDX 30 68 32 70 34 72
REMARK H PARENT 1 23 56 25 54 27 52 29 50 32 9 34 11 36 46 39 16 41 18 43
REMARK H PARENT 42 53 23 55 25 57 38 67 30 69 32 71 34 73
ROOT
ATOM      1  C   UNL     1      11.300 -10.804  -8.751  1.00  0.00    +0.184 C 
ATOM      2  C   UNL     1      10.918 -11.055 -10.219  1.00  0.00    +0.178 C 
ATOM      3  O   UNL     1      12.025 -10.872 -11.122  1.00  0.00    -0.341 OA
ATOM      4  C   UNL     1      12.750  -9.645 -11.011  1.00  0.00    +0.282 C 
ATOM      5  C   UNL     1      13.171  -9.344  -9.559  1.00  0.00    +0.202 C 
ATOM      6  C   UNL     1      11.983  -9.441  -8.602  1.00  0.00    +0.180 C 
ENDROOT
BRANCH   1   7
ATOM      7  O   UNL     1      10.125 -10.851  -7.927  1.00  0.00    -0.341 OA
BRANCH   7   8
ATOM      8  C   UNL     1       9.763 -12.192  -7.570  1.00  0.00    +0.282 C 
ATOM      9  C   UNL     1       8.340 -12.999  -5.089  1.00  0.00    +0.184 C 
ATOM     10  C   UNL     1       7.752 -12.087  -6.196  1.00  0.00    +0.178 C 
ATOM     11  C   UNL     1       9.715 -13.575  -5.481  1.00  0.00    +0.180 C 
ATOM     12  O   UNL     1       8.346 -12.321  -7.481  1.00  0.00    -0.341 OA
ATOM     13  C   UNL     1      10.527 -12.577  -6.287  1.00  0.00    +0.202 C 
BRANCH   9  14
ATOM     14  O   UNL     1       7.491 -14.152  -4.895  1.00  0.00    -0.341 OA
BRANCH  14  15
ATOM     15  C   UNL     1       7.330 -14.520  -3.525  1.00  0.00    +0.282 C 
ATOM     16  C   UNL     1       5.705 -14.701  -1.743  1.00  0.00    +0.178 C 
ATOM     17  C   UNL     1       6.126 -16.152  -1.459  1.00  0.00    +0.177 C 
ATOM     18  O   UNL     1       5.976 -14.328  -3.102  1.00  0.00    -0.341 OA
ATOM     19  C   UNL     1       7.579 -16.395  -1.887  1.00  0.00    +0.179 C 
ATOM     20  C   UNL     1       7.775 -15.990  -3.347  1.00  0.00    +0.202 C 
BRANCH  16  21
ATOM     21  C   UNL     1       6.292 -13.673  -0.761  1.00  0.00    +0.191 C 
BRANCH  21  22
ATOM     22  O   UNL     1       5.775 -13.890   0.551  1.00  0.00    -0.394 OA
ATOM     23  H   UNL     1       6.511 -14.241   1.105  1.00  0.00    +0.210 HD
ENDBRANCH  21  22
ENDBRANCH  16  21
BRANCH  17  24
ATOM     24  O   UNL     1       5.994 -16.504  -0.078  1.00  0.00    -0.387 OA
ATOM     25  H   UNL     1       6.888 -16.711   0.253  1.00  0.00    +0.211 HD
ENDBRANCH  17  24
BRANCH  19  26
ATOM     26  O   UNL     1       7.890 -17.791  -1.731  1.00  0.00    -0.387 OA
ATOM     27  H   UNL     1       8.230 -17.875  -0.818  1.00  0.00    +0.211 HD
ENDBRANCH  19  26
BRANCH  20  28
ATOM     28  O   UNL     1       7.005 -16.891  -4.167  1.00  0.00    -0.385 OA
ATOM     29  H   UNL     1       6.073 -16.636  -4.012  1.00  0.00    +0.211 HD
ENDBRANCH  20  28
ENDBRANCH  14  15
ENDBRANCH   9  14
BRANCH  10  30
ATOM     30  C   UNL     1       7.756 -10.588  -5.844  1.00  0.00    +0.191 C 
BRANCH  30  31
ATOM     31  O   UNL     1       8.253 -10.350  -4.530  1.00  0.00    -0.394 OA
ATOM     32  H   UNL     1       8.316  -9.382  -4.431  1.00  0.00    +0.210 HD
ENDBRANCH  30  31
ENDBRANCH  10  30
BRANCH  11  33
ATOM     33  O   UNL     1      10.446 -13.914  -4.285  1.00  0.00    -0.387 OA
ATOM     34  H   UNL     1      10.985 -14.695  -4.526  1.00  0.00    +0.211 HD
ENDBRANCH  11  33
BRANCH  13  35
ATOM     35  O   UNL     1      10.798 -11.436  -5.444  1.00  0.00    -0.385 OA
ATOM     36  H   UNL     1      10.080 -10.802  -5.649  1.00  0.00    +0.211 HD
ENDBRANCH  13  35
ENDBRANCH   7   8
ENDBRANCH   1   7
BRANCH   2  37
ATOM     37  C   UNL     1       9.669 -10.281 -10.680  1.00  0.00    +0.191 C 
BRANCH  37  38
ATOM     38  O   UNL     1       8.949 -11.043 -11.647  1.00  0.00    -0.394 OA
ATOM     39  H   UNL     1       9.573 -11.229 -12.373  1.00  0.00    +0.210 HD
ENDBRANCH  37  38
ENDBRANCH   2  37
BRANCH   6  40
ATOM     40  O   UNL     1      12.451  -9.269  -7.254  1.00  0.00    -0.387 OA
ATOM     41  H   UNL     1      11.822  -9.746  -6.676  1.00  0.00    +0.211 HD
ENDBRANCH   6  40
BRANCH   5  42
ATOM     42  O   UNL     1      13.778  -8.051  -9.416  1.00  0.00    -0.385 OA
ATOM     43  H   UNL     1      14.639  -8.181  -8.974  1.00  0.00    +0.211 HD
ENDBRANCH   5  42
BRANCH   4  44
ATOM     44  O   UNL     1      11.981  -8.574 -11.567  1.00  0.00    -0.341 OA
BRANCH  44  45
ATOM     45  C   UNL     1      12.494  -8.059 -12.821  1.00  0.00    +0.184 C 
ATOM     46  C   UNL     1      11.386  -7.896 -13.896  1.00  0.00    +0.178 C 
ATOM     47  C   UNL     1      13.147  -6.690 -12.489  1.00  0.00    +0.180 C 
ATOM     48  O   UNL     1      10.675  -6.661 -13.694  1.00  0.00    -0.341 OA
ATOM     49  C   UNL     1      12.994  -5.706 -13.640  1.00  0.00    +0.202 C 
ATOM     50  C   UNL     1      11.487  -5.510 -13.958  1.00  0.00    +0.282 C 
BRANCH  46  51
ATOM     51  C   UNL     1      10.352  -9.024 -13.891  1.00  0.00    +0.191 C 
BRANCH  51  52
ATOM     52  O   UNL     1      11.014 -10.290 -13.898  1.00  0.00    -0.394 OA
ATOM     53  H   UNL     1      10.317 -10.949 -14.076  1.00  0.00    +0.210 HD
ENDBRANCH  51  52
ENDBRANCH  46  51
BRANCH  47  54
ATOM     54  O   UNL     1      12.597  -6.124 -11.289  1.00  0.00    -0.387 OA
ATOM     55  H   UNL     1      12.588  -6.846 -10.628  1.00  0.00    +0.211 HD
ENDBRANCH  47  54
BRANCH  49  56
ATOM     56  O   UNL     1      13.716  -6.210 -14.776  1.00  0.00    -0.385 OA
ATOM     57  H   UNL     1      13.025  -6.467 -15.431  1.00  0.00    +0.211 HD
ENDBRANCH  49  56
BRANCH  50  58
ATOM     58  O   UNL     1      11.384  -5.161 -15.336  1.00  0.00    -0.341 OA
BRANCH  58  59
ATOM     59  C   UNL     1      10.625  -3.983 -15.608  1.00  0.00    +0.184 C 
ATOM     60  C   UNL     1      11.116  -3.381 -16.950  1.00  0.00    +0.178 C 
ATOM     61  C   UNL     1       9.133  -4.321 -15.710  1.00  0.00    +0.180 C 
ATOM     62  O   UNL     1      10.840  -4.269 -18.056  1.00  0.00    -0.342 OA
ATOM     63  C   UNL     1       8.858  -5.179 -16.947  1.00  0.00    +0.201 C 
ATOM     64  C   UNL     1       9.450  -4.510 -18.199  1.00  0.00    +0.279 C 
BRANCH  60  65
ATOM     65  C   UNL     1      12.633  -3.127 -16.958  1.00  0.00    +0.191 C 
BRANCH  65  66
ATOM     66  O   UNL     1      13.119  -2.793 -15.655  1.00  0.00    -0.394 OA
ATOM     67  H   UNL     1      13.447  -1.873 -15.744  1.00  0.00    +0.210 HD
ENDBRANCH  65  66
ENDBRANCH  60  65
BRANCH  61  68
ATOM     68  O   UNL     1       8.364  -3.111 -15.786  1.00  0.00    -0.387 OA
ATOM     69  H   UNL     1       7.517  -3.383 -16.199  1.00  0.00    +0.211 HD
ENDBRANCH  61  68
BRANCH  63  70
ATOM     70  O   UNL     1       7.438  -5.347 -17.089  1.00  0.00    -0.385 OA
ATOM     71  H   UNL     1       7.195  -4.774 -17.844  1.00  0.00    +0.211 HD
ENDBRANCH  63  70
BRANCH  64  72
ATOM     72  O   UNL     1       9.264  -5.398 -19.296  1.00  0.00    -0.366 OA
ATOM     73  H   UNL     1       8.338  -5.269 -19.563  1.00  0.00    +0.213 HD
ENDBRANCH  64  72
ENDBRANCH  58  59
ENDBRANCH  50  58
ENDBRANCH  44  45
ENDBRANCH   4  44
TORSDOF 30
ENDMDL
MODEL 5
REMARK VINA RESULT:    -6.070      3.023     14.556
REMARK INTER + INTRA:         -17.608
REMARK INTER:                 -13.584
REMARK INTRA:                  -4.024
REMARK UNBOUND:                -3.909
REMARK SMILES OC[C@H]1O[C@H](O[C@H]2[C@H](O)[C@H](O)[C@H](O[C@@H]3[C@@H](O)[C@H](O)[C@H](O[C@@H]4[C@H](O)[C@@H](O)[C@@H](O[C@@H]5[C@@H](O)[C@@H](O)[C@H](O)O[C@@H]5CO)O[C@@H]4CO)O[C@@H]3CO)O[C@@H]2CO)[C@H](O)[C@H](O)[C@H]1O
REMARK SMILES IDX 14 1 44 2 43 3 19 4 17 5 15 6 13 7 12 8 7 9 48 10 8 11 47 12
REMARK SMILES IDX 10 13 6 14 5 15 3 16 55 17 4 18 53 19 51 20 2 21 1 22 56 24
REMARK SMILES IDX 54 26 52 28 49 30 50 31 9 33 11 35 45 37 46 38 16 40 18 42
REMARK SMILES IDX 20 44 21 45 40 46 22 47 39 48 24 49 26 50 41 51 42 52 23 54
REMARK SMILES IDX 25 56 27 58 28 59 36 60 29 61 35 62 31 63 33 64 37 65 38 66
REMARK SMILES IDX 30 68 32 70 34 72
REMARK H PARENT 1 23 56 25 54 27 52 29 50 32 9 34 11 36 46 39 16 41 18 43
REMARK H PARENT 42 53 23 55 25 57 38 67 30 69 32 71 34 73
ROOT
ATOM      1  C   UNL     1       5.074  -9.414 -12.723  1.00  0.00    +0.184 C 
ATOM      2  C   UNL     1       4.160  -9.005 -11.555  1.00  0.00    +0.178 C 
ATOM      3  O   UNL     1       3.327 -10.086 -11.095  1.00  0.00    -0.341 OA
ATOM      4  C   UNL     1       2.567 -10.781 -12.088  1.00  0.00    +0.282 C 
ATOM      5  C   UNL     1       3.434 -11.226 -13.281  1.00  0.00    +0.202 C 
ATOM      6  C   UNL     1       4.254 -10.064 -13.841  1.00  0.00    +0.180 C 
ENDROOT
BRANCH   1   7
ATOM      7  O   UNL     1       5.761  -8.260 -13.231  1.00  0.00    -0.341 OA
BRANCH   7   8
ATOM      8  C   UNL     1       7.078  -8.573 -13.703  1.00  0.00    +0.282 C 
ATOM      9  C   UNL     1       9.528  -6.971 -13.190  1.00  0.00    +0.184 C 
ATOM     10  C   UNL     1       8.683  -7.679 -12.100  1.00  0.00    +0.178 C 
ATOM     11  C   UNL     1       9.041  -7.308 -14.613  1.00  0.00    +0.180 C 
ATOM     12  O   UNL     1       7.959  -8.809 -12.607  1.00  0.00    -0.341 OA
ATOM     13  C   UNL     1       7.530  -7.455 -14.663  1.00  0.00    +0.202 C 
BRANCH   9  14
ATOM     14  O   UNL     1      10.894  -7.441 -13.139  1.00  0.00    -0.341 OA
BRANCH  14  15
ATOM     15  C   UNL     1      11.785  -6.536 -12.487  1.00  0.00    +0.282 C 
ATOM     16  C   UNL     1      14.051  -6.290 -11.679  1.00  0.00    +0.178 C 
ATOM     17  C   UNL     1      14.214  -4.962 -12.435  1.00  0.00    +0.177 C 
ATOM     18  O   UNL     1      13.071  -7.136 -12.300  1.00  0.00    -0.341 OA
ATOM     19  C   UNL     1      12.856  -4.280 -12.645  1.00  0.00    +0.179 C 
ATOM     20  C   UNL     1      11.882  -5.241 -13.325  1.00  0.00    +0.202 C 
BRANCH  16  21
ATOM     21  C   UNL     1      13.767  -6.127 -10.177  1.00  0.00    +0.191 C 
BRANCH  21  22
ATOM     22  O   UNL     1      14.910  -5.592  -9.512  1.00  0.00    -0.394 OA
ATOM     23  H   UNL     1      14.591  -4.900  -8.886  1.00  0.00    +0.210 HD
ENDBRANCH  21  22
ENDBRANCH  16  21
BRANCH  17  24
ATOM     24  O   UNL     1      15.083  -4.046 -11.761  1.00  0.00    -0.387 OA
ATOM     25  H   UNL     1      15.760  -3.765 -12.404  1.00  0.00    +0.211 HD
ENDBRANCH  17  24
BRANCH  19  26
ATOM     26  O   UNL     1      13.035  -3.115 -13.469  1.00  0.00    -0.387 OA
ATOM     27  H   UNL     1      13.989  -2.907 -13.411  1.00  0.00    +0.211 HD
ENDBRANCH  19  26
BRANCH  20  28
ATOM     28  O   UNL     1      12.365  -5.494 -14.660  1.00  0.00    -0.385 OA
ATOM     29  H   UNL     1      12.840  -4.677 -14.913  1.00  0.00    +0.211 HD
ENDBRANCH  20  28
ENDBRANCH  14  15
ENDBRANCH   9  14
BRANCH  10  30
ATOM     30  C   UNL     1       7.760  -6.736 -11.308  1.00  0.00    +0.191 C 
BRANCH  30  31
ATOM     31  O   UNL     1       6.899  -7.451 -10.424  1.00  0.00    -0.394 OA
ATOM     32  H   UNL     1       6.581  -6.804  -9.767  1.00  0.00    +0.210 HD
ENDBRANCH  30  31
ENDBRANCH  10  30
BRANCH  11  33
ATOM     33  O   UNL     1       9.437  -6.254 -15.513  1.00  0.00    -0.387 OA
ATOM     34  H   UNL     1       9.779  -5.540 -14.938  1.00  0.00    +0.211 HD
ENDBRANCH  11  33
BRANCH  13  35
ATOM     35  O   UNL     1       6.945  -6.176 -14.334  1.00  0.00    -0.385 OA
ATOM     36  H   UNL     1       6.756  -5.760 -15.200  1.00  0.00    +0.211 HD
ENDBRANCH  13  35
ENDBRANCH   7   8
ENDBRANCH   1   7
BRANCH   2  37
ATOM     37  C   UNL     1       3.345  -7.727 -11.819  1.00  0.00    +0.191 C 
BRANCH  37  38
ATOM     38  O   UNL     1       4.172  -6.575 -11.656  1.00  0.00    -0.394 OA
ATOM     39  H   UNL     1       3.642  -5.811 -11.946  1.00  0.00    +0.210 HD
ENDBRANCH  37  38
ENDBRANCH   2  37
BRANCH   6  40
ATOM     40  O   UNL     1       5.127 -10.558 -14.870  1.00  0.00    -0.387 OA
ATOM     41  H   UNL     1       5.959 -10.046 -14.801  1.00  0.00    +0.211 HD
ENDBRANCH   6  40
BRANCH   5  42
ATOM     42  O   UNL     1       2.659 -11.801 -14.344  1.00  0.00    -0.385 OA
ATOM     43  H   UNL     1       1.962 -11.158 -14.577  1.00  0.00    +0.211 HD
ENDBRANCH   5  42
BRANCH   4  44
ATOM     44  O   UNL     1       1.467  -9.970 -12.512  1.00  0.00    -0.341 OA
BRANCH  44  45
ATOM     45  C   UNL     1       0.164 -10.539 -12.231  1.00  0.00    +0.184 C 
ATOM     46  C   UNL     1      -0.799  -9.520 -11.564  1.00  0.00    +0.178 C 
ATOM     47  C   UNL     1      -0.399 -11.021 -13.595  1.00  0.00    +0.180 C 
ATOM     48  O   UNL     1      -1.399  -8.675 -12.564  1.00  0.00    -0.341 OA
ATOM     49  C   UNL     1      -1.913 -10.874 -13.656  1.00  0.00    +0.202 C 
ATOM     50  C   UNL     1      -2.300  -9.389 -13.420  1.00  0.00    +0.282 C 
BRANCH  46  51
ATOM     51  C   UNL     1      -0.120  -8.607 -10.542  1.00  0.00    +0.191 C 
BRANCH  51  52
ATOM     52  O   UNL     1       0.189  -7.349 -11.144  1.00  0.00    -0.394 OA
ATOM     53  H   UNL     1       1.075  -7.459 -11.540  1.00  0.00    +0.210 HD
ENDBRANCH  51  52
ENDBRANCH  46  51
BRANCH  47  54
ATOM     54  O   UNL     1       0.203 -10.313 -14.690  1.00  0.00    -0.387 OA
ATOM     55  H   UNL     1      -0.197 -10.681 -15.503  1.00  0.00    +0.211 HD
ENDBRANCH  47  54
BRANCH  49  56
ATOM     56  O   UNL     1      -2.501 -11.741 -12.671  1.00  0.00    -0.385 OA
ATOM     57  H   UNL     1      -1.993 -11.575 -11.843  1.00  0.00    +0.211 HD
ENDBRANCH  49  56
BRANCH  50  58
ATOM     58  O   UNL     1      -3.607  -9.375 -12.850  1.00  0.00    -0.341 OA
BRANCH  58  59
ATOM     59  C   UNL     1      -4.502  -8.415 -13.413  1.00  0.00    +0.184 C 
ATOM     60  C   UNL     1      -5.769  -9.159 -13.911  1.00  0.00    +0.178 C 
ATOM     61  C   UNL     1      -4.897  -7.372 -12.361  1.00  0.00    +0.180 C 
ATOM     62  O   UNL     1      -6.495  -9.751 -12.813  1.00  0.00    -0.342 OA
ATOM     63  C   UNL     1      -5.750  -8.010 -11.264  1.00  0.00    +0.201 C 
ATOM     64  C   UNL     1      -6.933  -8.771 -11.886  1.00  0.00    +0.279 C 
BRANCH  60  65
ATOM     65  C   UNL     1      -5.433 -10.303 -14.884  1.00  0.00    +0.191 C 
BRANCH  65  66
ATOM     66  O   UNL     1      -5.287 -11.551 -14.200  1.00  0.00    -0.394 OA
ATOM     67  H   UNL     1      -4.842 -12.135 -14.849  1.00  0.00    +0.210 HD
ENDBRANCH  65  66
ENDBRANCH  60  65
BRANCH  61  68
ATOM     68  O   UNL     1      -5.633  -6.309 -12.983  1.00  0.00    -0.387 OA
ATOM     69  H   UNL     1      -6.513  -6.332 -12.550  1.00  0.00    +0.211 HD
ENDBRANCH  61  68
BRANCH  63  70
ATOM     70  O   UNL     1      -6.222  -6.977 -10.383  1.00  0.00    -0.385 OA
ATOM     71  H   UNL     1      -6.474  -7.448  -9.562  1.00  0.00    +0.211 HD
ENDBRANCH  63  70
BRANCH  64  72
ATOM     72  O   UNL     1      -7.627  -9.434 -10.834  1.00  0.00    -0.366 OA
ATOM     73  H   UNL     1      -7.624  -8.798 -10.098  1.00  0.00    +0.213 HD
ENDBRANCH  64  72
ENDBRANCH  58  59
ENDBRANCH  50  58
ENDBRANCH  44  45
ENDBRANCH   4  44
TORSDOF 30
ENDMDL
MODEL 6
REMARK VINA RESULT:    -6.013      8.837     13.733
REMARK INTER + INTRA:         -17.481
REMARK INTER:                 -14.007
REMARK INTRA:                  -3.473
REMARK UNBOUND:                -3.909
REMARK SMILES OC[C@H]1O[C@H](O[C@H]2[C@H](O)[C@H](O)[C@H](O[C@@H]3[C@@H](O)[C@H](O)[C@H](O[C@@H]4[C@H](O)[C@@H](O)[C@@H](O[C@@H]5[C@@H](O)[C@@H](O)[C@H](O)O[C@@H]5CO)O[C@@H]4CO)O[C@@H]3CO)O[C@@H]2CO)[C@H](O)[C@H](O)[C@H]1O
REMARK SMILES IDX 14 1 44 2 43 3 19 4 17 5 15 6 13 7 12 8 7 9 48 10 8 11 47 12
REMARK SMILES IDX 10 13 6 14 5 15 3 16 55 17 4 18 53 19 51 20 2 21 1 22 56 24
REMARK SMILES IDX 54 26 52 28 49 30 50 31 9 33 11 35 45 37 46 38 16 40 18 42
REMARK SMILES IDX 20 44 21 45 40 46 22 47 39 48 24 49 26 50 41 51 42 52 23 54
REMARK SMILES IDX 25 56 27 58 28 59 36 60 29 61 35 62 31 63 33 64 37 65 38 66
REMARK SMILES IDX 30 68 32 70 34 72
REMARK H PARENT 1 23 56 25 54 27 52 29 50 32 9 34 11 36 46 39 16 41 18 43
REMARK H PARENT 42 53 23 55 25 57 38 67 30 69 32 71 34 73
ROOT
ATOM      1  C   UNL     1       6.188 -13.749  -7.728  1.00  0.00    +0.184 C 
ATOM      2  C   UNL     1       5.605 -14.149  -6.363  1.00  0.00    +0.178 C 
ATOM      3  O   UNL     1       6.191 -15.356  -5.839  1.00  0.00    -0.341 OA
ATOM      4  C   UNL     1       6.216 -16.490  -6.710  1.00  0.00    +0.282 C 
ATOM      5  C   UNL     1       6.802 -16.151  -8.094  1.00  0.00    +0.202 C 
ATOM      6  C   UNL     1       6.121 -14.927  -8.705  1.00  0.00    +0.180 C 
ENDROOT
BRANCH   1   7
ATOM      7  O   UNL     1       5.458 -12.633  -8.262  1.00  0.00    -0.341 OA
BRANCH   7   8
ATOM      8  C   UNL     1       5.950 -11.377  -7.775  1.00  0.00    +0.282 C 
ATOM      9  C   UNL     1       6.299  -8.909  -9.394  1.00  0.00    +0.184 C 
ATOM     10  C   UNL     1       4.943  -9.606  -9.115  1.00  0.00    +0.178 C 
ATOM     11  C   UNL     1       7.457  -9.558  -8.611  1.00  0.00    +0.180 C 
ATOM     12  O   UNL     1       4.950 -10.367  -7.898  1.00  0.00    -0.341 OA
ATOM     13  C   UNL     1       7.276 -11.062  -8.494  1.00  0.00    +0.202 C 
BRANCH   9  14
ATOM     14  O   UNL     1       6.256  -7.540  -8.934  1.00  0.00    -0.341 OA
BRANCH  14  15
ATOM     15  C   UNL     1       5.235  -6.760  -9.558  1.00  0.00    +0.282 C 
ATOM     16  C   UNL     1       3.775  -4.860  -9.233  1.00  0.00    +0.178 C 
ATOM     17  C   UNL     1       4.226  -4.241 -10.566  1.00  0.00    +0.177 C 
ATOM     18  O   UNL     1       4.782  -5.723  -8.683  1.00  0.00    -0.341 OA
ATOM     19  C   UNL     1       4.709  -5.324 -11.538  1.00  0.00    +0.179 C 
ATOM     20  C   UNL     1       5.789  -6.181 -10.881  1.00  0.00    +0.202 C 
BRANCH  16  21
ATOM     21  C   UNL     1       2.414  -5.573  -9.302  1.00  0.00    +0.191 C 
BRANCH  21  22
ATOM     22  O   UNL     1       1.559  -5.112  -8.257  1.00  0.00    -0.394 OA
ATOM     23  H   UNL     1       1.790  -4.170  -8.080  1.00  0.00    +0.210 HD
ENDBRANCH  21  22
ENDBRANCH  16  21
BRANCH  17  24
ATOM     24  O   UNL     1       3.190  -3.487 -11.203  1.00  0.00    -0.387 OA
ATOM     25  H   UNL     1       2.510  -3.304 -10.527  1.00  0.00    +0.211 HD
ENDBRANCH  17  24
BRANCH  19  26
ATOM     26  O   UNL     1       5.247  -4.695 -12.715  1.00  0.00    -0.387 OA
ATOM     27  H   UNL     1       6.203  -4.592 -12.534  1.00  0.00    +0.211 HD
ENDBRANCH  19  26
BRANCH  20  28
ATOM     28  O   UNL     1       6.948  -5.351 -10.666  1.00  0.00    -0.385 OA
ATOM     29  H   UNL     1       7.702  -5.973 -10.658  1.00  0.00    +0.211 HD
ENDBRANCH  20  28
ENDBRANCH  14  15
ENDBRANCH   9  14
BRANCH  10  30
ATOM     30  C   UNL     1       4.410 -10.443 -10.292  1.00  0.00    +0.191 C 
BRANCH  30  31
ATOM     31  O   UNL     1       3.283 -11.231  -9.918  1.00  0.00    -0.394 OA
ATOM     32  H   UNL     1       3.418 -12.111 -10.319  1.00  0.00    +0.210 HD
ENDBRANCH  30  31
ENDBRANCH  10  30
BRANCH  11  33
ATOM     33  O   UNL     1       8.700  -9.290  -9.292  1.00  0.00    -0.387 OA
ATOM     34  H   UNL     1       9.157  -8.623  -8.740  1.00  0.00    +0.211 HD
ENDBRANCH  11  33
BRANCH  13  35
ATOM     35  O   UNL     1       7.329 -11.623  -9.824  1.00  0.00    -0.385 OA
ATOM     36  H   UNL     1       7.139 -12.576  -9.697  1.00  0.00    +0.211 HD
ENDBRANCH  13  35
ENDBRANCH   7   8
ENDBRANCH   1   7
BRANCH   2  37
ATOM     37  C   UNL     1       4.067 -14.199  -6.333  1.00  0.00    +0.191 C 
BRANCH  37  38
ATOM     38  O   UNL     1       3.619 -14.780  -5.109  1.00  0.00    -0.394 OA
ATOM     39  H   UNL     1       4.169 -15.572  -4.961  1.00  0.00    +0.210 HD
ENDBRANCH  37  38
ENDBRANCH   2  37
BRANCH   6  40
ATOM     40  O   UNL     1       6.783 -14.586  -9.935  1.00  0.00    -0.387 OA
ATOM     41  H   UNL     1       7.744 -14.652  -9.762  1.00  0.00    +0.211 HD
ENDBRANCH   6  40
BRANCH   5  42
ATOM     42  O   UNL     1       6.705 -17.245  -9.018  1.00  0.00    -0.385 OA
ATOM     43  H   UNL     1       6.024 -17.856  -8.676  1.00  0.00    +0.211 HD
ENDBRANCH   5  42
BRANCH   4  44
ATOM     44  O   UNL     1       4.902 -17.047  -6.818  1.00  0.00    -0.341 OA
BRANCH  44  45
ATOM     45  C   UNL     1       4.877 -18.485  -6.999  1.00  0.00    +0.184 C 
ATOM     46  C   UNL     1       4.441 -19.239  -5.713  1.00  0.00    +0.178 C 
ATOM     47  C   UNL     1       3.885 -18.756  -8.162  1.00  0.00    +0.180 C 
ATOM     48  O   UNL     1       3.006 -19.241  -5.602  1.00  0.00    -0.341 OA
ATOM     49  C   UNL     1       3.142 -20.069  -7.965  1.00  0.00    +0.202 C 
ATOM     50  C   UNL     1       2.376 -20.035  -6.615  1.00  0.00    +0.282 C 
BRANCH  46  51
ATOM     51  C   UNL     1       4.999 -18.633  -4.424  1.00  0.00    +0.191 C 
BRANCH  51  52
ATOM     52  O   UNL     1       4.345 -17.393  -4.148  1.00  0.00    -0.394 OA
ATOM     53  H   UNL     1       4.959 -16.699  -4.453  1.00  0.00    +0.210 HD
ENDBRANCH  51  52
ENDBRANCH  46  51
BRANCH  47  54
ATOM     54  O   UNL     1       2.944 -17.681  -8.309  1.00  0.00    -0.387 OA
ATOM     55  H   UNL     1       3.068 -17.336  -9.216  1.00  0.00    +0.211 HD
ENDBRANCH  47  54
BRANCH  49  56
ATOM     56  O   UNL     1       4.091 -21.149  -8.011  1.00  0.00    -0.385 OA
ATOM     57  H   UNL     1       4.322 -21.251  -8.964  1.00  0.00    +0.211 HD
ENDBRANCH  49  56
BRANCH  50  58
ATOM     58  O   UNL     1       2.257 -21.381  -6.159  1.00  0.00    -0.341 OA
BRANCH  58  59
ATOM     59  C   UNL     1       0.929 -21.795  -5.837  1.00  0.00    +0.184 C 
ATOM     60  C   UNL     1       0.933 -23.330  -5.618  1.00  0.00    +0.178 C 
ATOM     61  C   UNL     1       0.445 -21.094  -4.563  1.00  0.00    +0.180 C 
ATOM     62  O   UNL     1       1.729 -23.694  -4.469  1.00  0.00    -0.342 OA
ATOM     63  C   UNL     1       1.240 -21.575  -3.348  1.00  0.00    +0.201 C 
ATOM     64  C   UNL     1       1.225 -23.111  -3.278  1.00  0.00    +0.279 C 
BRANCH  60  65
ATOM     65  C   UNL     1       1.521 -24.092  -6.819  1.00  0.00    +0.191 C 
BRANCH  65  66
ATOM     66  O   UNL     1       1.602 -23.262  -7.981  1.00  0.00    -0.394 OA
ATOM     67  H   UNL     1       2.310 -22.618  -7.774  1.00  0.00    +0.210 HD
ENDBRANCH  65  66
ENDBRANCH  60  65
BRANCH  61  68
ATOM     68  O   UNL     1      -0.950 -21.364  -4.359  1.00  0.00    -0.387 OA
ATOM     69  H   UNL     1      -1.008 -22.341  -4.305  1.00  0.00    +0.211 HD
ENDBRANCH  61  68
BRANCH  63  70
ATOM     70  O   UNL     1       0.660 -21.011  -2.160  1.00  0.00    -0.385 OA
ATOM     71  H   UNL     1       1.190 -21.383  -1.425  1.00  0.00    +0.211 HD
ENDBRANCH  63  70
BRANCH  64  72
ATOM     72  O   UNL     1       2.067 -23.507  -2.200  1.00  0.00    -0.366 OA
ATOM     73  H   UNL     1       2.845 -22.929  -2.270  1.00  0.00    +0.213 HD
ENDBRANCH  64  72
ENDBRANCH  58  59
ENDBRANCH  50  58
ENDBRANCH  44  45
ENDBRANCH   4  44
TORSDOF 30
ENDMDL
MODEL 7
REMARK VINA RESULT:    -5.842     10.781     18.230
REMARK INTER + INTRA:         -17.095
REMARK INTER:                 -13.125
REMARK INTRA:                  -3.970
REMARK UNBOUND:                -3.909
REMARK SMILES OC[C@H]1O[C@H](O[C@H]2[C@H](O)[C@H](O)[C@H](O[C@@H]3[C@@H](O)[C@H](O)[C@H](O[C@@H]4[C@H](O)[C@@H](O)[C@@H](O[C@@H]5[C@@H](O)[C@@H](O)[C@H](O)O[C@@H]5CO)O[C@@H]4CO)O[C@@H]3CO)O[C@@H]2CO)[C@H](O)[C@H](O)[C@H]1O
REMARK SMILES IDX 14 1 44 2 43 3 19 4 17 5 15 6 13 7 12 8 7 9 48 10 8 11 47 12
REMARK SMILES IDX 10 13 6 14 5 15 3 16 55 17 4 18 53 19 51 20 2 21 1 22 56 24
REMARK SMILES IDX 54 26 52 28 49 30 50 31 9 33 11 35 45 37 46 38 16 40 18 42
REMARK SMILES IDX 20 44 21 45 40 46 22 47 39 48 24 49 26 50 41 51 42 52 23 54
REMARK SMILES IDX 25 56 27 58 28 59 36 60 29 61 35 62 31 63 33 64 37 65 38 66
REMARK SMILES IDX 30 68 32 70 34 72
REMARK H PARENT 1 23 56 25 54 27 52 29 50 32 9 34 11 36 46 39 16 41 18 43
REMARK H PARENT 42 53 23 55 25 57 38 67 30 69 32 71 34 73
ROOT
ATOM      1  C   UNL     1      21.904   4.171  -8.605  1.00  0.00    +0.184 C 
ATOM      2  C   UNL     1      21.572   3.171  -7.486  1.00  0.00    +0.178 C 
ATOM      3  O   UNL     1      22.368   1.972  -7.556  1.00  0.00    -0.341 OA
ATOM      4  C   UNL     1      22.407   1.298  -8.816  1.00  0.00    +0.282 C 
ATOM      5  C   UNL     1      22.746   2.252  -9.979  1.00  0.00    +0.202 C 
ATOM      6  C   UNL     1      21.843   3.484  -9.972  1.00  0.00    +0.180 C 
ENDROOT
BRANCH   1   7
ATOM      7  O   UNL     1      20.975   5.267  -8.570  1.00  0.00    -0.341 OA
BRANCH   7   8
ATOM      8  C   UNL     1      21.285   6.210  -7.535  1.00  0.00    +0.282 C 
ATOM      9  C   UNL     1      19.523   8.425  -6.628  1.00  0.00    +0.184 C 
ATOM     10  C   UNL     1      19.188   6.916  -6.511  1.00  0.00    +0.178 C 
ATOM     11  C   UNL     1      20.956   8.664  -7.142  1.00  0.00    +0.180 C 
ATOM     12  O   UNL     1      20.360   6.090  -6.456  1.00  0.00    -0.341 OA
ATOM     13  C   UNL     1      21.362   7.616  -8.164  1.00  0.00    +0.202 C 
BRANCH   9  14
ATOM     14  O   UNL     1      19.486   9.043  -5.322  1.00  0.00    -0.341 OA
BRANCH  14  15
ATOM     15  C   UNL     1      18.898  10.345  -5.323  1.00  0.00    +0.282 C 
ATOM     16  C   UNL     1      17.515  11.848  -6.617  1.00  0.00    +0.178 C 
ATOM     17  C   UNL     1      16.587  12.086  -5.415  1.00  0.00    +0.177 C 
ATOM     18  O   UNL     1      18.172  10.574  -6.534  1.00  0.00    -0.341 OA
ATOM     19  C   UNL     1      17.333  11.862  -4.094  1.00  0.00    +0.179 C 
ATOM     20  C   UNL     1      17.984  10.480  -4.083  1.00  0.00    +0.202 C 
BRANCH  16  21
ATOM     21  C   UNL     1      18.530  12.978  -6.861  1.00  0.00    +0.191 C 
BRANCH  21  22
ATOM     22  O   UNL     1      19.393  12.643  -7.946  1.00  0.00    -0.394 OA
ATOM     23  H   UNL     1      19.188  11.717  -8.213  1.00  0.00    +0.210 HD
ENDBRANCH  21  22
ENDBRANCH  16  21
BRANCH  17  24
ATOM     24  O   UNL     1      16.027  13.403  -5.403  1.00  0.00    -0.387 OA
ATOM     25  H   UNL     1      15.163  13.352  -5.854  1.00  0.00    +0.211 HD
ENDBRANCH  17  24
BRANCH  19  26
ATOM     26  O   UNL     1      16.401  11.961  -3.003  1.00  0.00    -0.387 OA
ATOM     27  H   UNL     1      16.607  12.813  -2.569  1.00  0.00    +0.211 HD
ENDBRANCH  19  26
BRANCH  20  28
ATOM     28  O   UNL     1      16.935   9.492  -4.072  1.00  0.00    -0.385 OA
ATOM     29  H   UNL     1      17.266   8.782  -3.487  1.00  0.00    +0.211 HD
ENDBRANCH  20  28
ENDBRANCH  14  15
ENDBRANCH   9  14
BRANCH  10  30
ATOM     30  C   UNL     1      18.196   6.407  -7.573  1.00  0.00    +0.191 C 
BRANCH  30  31
ATOM     31  O   UNL     1      17.731   7.459  -8.414  1.00  0.00    -0.394 OA
ATOM     32  H   UNL     1      17.368   7.032  -9.213  1.00  0.00    +0.210 HD
ENDBRANCH  30  31
ENDBRANCH  10  30
BRANCH  11  33
ATOM     33  O   UNL     1      21.030   9.966  -7.756  1.00  0.00    -0.387 OA
ATOM     34  H   UNL     1      21.162  10.593  -7.015  1.00  0.00    +0.211 HD
ENDBRANCH  11  33
BRANCH  13  35
ATOM     35  O   UNL     1      20.497   7.753  -9.313  1.00  0.00    -0.385 OA
ATOM     36  H   UNL     1      19.805   8.383  -9.027  1.00  0.00    +0.211 HD
ENDBRANCH  13  35
ENDBRANCH   7   8
ENDBRANCH   1   7
BRANCH   2  37
ATOM     37  C   UNL     1      20.071   2.854  -7.357  1.00  0.00    +0.191 C 
BRANCH  37  38
ATOM     38  O   UNL     1      19.422   3.033  -8.615  1.00  0.00    -0.394 OA
ATOM     39  H   UNL     1      18.465   2.971  -8.443  1.00  0.00    +0.210 HD
ENDBRANCH  37  38
ENDBRANCH   2  37
BRANCH   6  40
ATOM     40  O   UNL     1      22.278   4.391 -11.000  1.00  0.00    -0.387 OA
ATOM     41  H   UNL     1      23.246   4.491 -10.893  1.00  0.00    +0.211 HD
ENDBRANCH   6  40
BRANCH   5  42
ATOM     42  O   UNL     1      22.653   1.615 -11.262  1.00  0.00    -0.385 OA
ATOM     43  H   UNL     1      23.394   0.982 -11.327  1.00  0.00    +0.211 HD
ENDBRANCH   5  42
BRANCH   4  44
ATOM     44  O   UNL     1      21.168   0.618  -9.041  1.00  0.00    -0.341 OA
BRANCH  44  45
ATOM     45  C   UNL     1      21.284  -0.826  -9.103  1.00  0.00    +0.184 C 
ATOM     46  C   UNL     1      20.225  -1.546  -8.224  1.00  0.00    +0.178 C 
ATOM     47  C   UNL     1      21.114  -1.208 -10.598  1.00  0.00    +0.180 C 
ATOM     48  O   UNL     1      18.971  -1.630  -8.926  1.00  0.00    -0.341 OA
ATOM     49  C   UNL     1      20.419  -2.554 -10.753  1.00  0.00    +0.202 C 
ATOM     50  C   UNL     1      19.032  -2.505 -10.059  1.00  0.00    +0.282 C 
BRANCH  46  51
ATOM     51  C   UNL     1      19.956  -0.850  -6.889  1.00  0.00    +0.191 C 
BRANCH  51  52
ATOM     52  O   UNL     1      21.193  -0.531  -6.250  1.00  0.00    -0.394 OA
ATOM     53  H   UNL     1      21.853  -0.480  -6.967  1.00  0.00    +0.210 HD
ENDBRANCH  51  52
ENDBRANCH  46  51
BRANCH  47  54
ATOM     54  O   UNL     1      20.387  -0.200 -11.317  1.00  0.00    -0.387 OA
ATOM     55  H   UNL     1      19.498  -0.164 -10.909  1.00  0.00    +0.211 HD
ENDBRANCH  47  54
BRANCH  49  56
ATOM     56  O   UNL     1      21.261  -3.575 -10.190  1.00  0.00    -0.385 OA
ATOM     57  H   UNL     1      20.878  -4.428 -10.501  1.00  0.00    +0.211 HD
ENDBRANCH  49  56
BRANCH  50  58
ATOM     58  O   UNL     1      18.712  -3.833  -9.651  1.00  0.00    -0.341 OA
BRANCH  58  59
ATOM     59  C   UNL     1      18.467  -4.751 -10.717  1.00  0.00    +0.184 C 
ATOM     60  C   UNL     1      18.156  -6.142 -10.105  1.00  0.00    +0.178 C 
ATOM     61  C   UNL     1      17.277  -4.282 -11.562  1.00  0.00    +0.180 C 
ATOM     62  O   UNL     1      16.930  -6.117  -9.341  1.00  0.00    -0.342 OA
ATOM     63  C   UNL     1      15.979  -4.362 -10.757  1.00  0.00    +0.201 C 
ATOM     64  C   UNL     1      15.818  -5.765 -10.148  1.00  0.00    +0.279 C 
BRANCH  60  65
ATOM     65  C   UNL     1      19.260  -6.622  -9.148  1.00  0.00    +0.191 C 
BRANCH  65  66
ATOM     66  O   UNL     1      20.557  -6.212  -9.592  1.00  0.00    -0.394 OA
ATOM     67  H   UNL     1      20.439  -5.279  -9.868  1.00  0.00    +0.210 HD
ENDBRANCH  65  66
ENDBRANCH  60  65
BRANCH  61  68
ATOM     68  O   UNL     1      17.162  -5.099 -12.737  1.00  0.00    -0.387 OA
ATOM     69  H   UNL     1      17.509  -4.537 -13.463  1.00  0.00    +0.211 HD
ENDBRANCH  61  68
BRANCH  63  70
ATOM     70  O   UNL     1      14.874  -4.060 -11.625  1.00  0.00    -0.385 OA
ATOM     71  H   UNL     1      15.197  -3.329 -12.191  1.00  0.00    +0.211 HD
ENDBRANCH  63  70
BRANCH  64  72
ATOM     72  O   UNL     1      14.658  -5.752  -9.323  1.00  0.00    -0.366 OA
ATOM     73  H   UNL     1      14.189  -4.937  -9.569  1.00  0.00    +0.213 HD
ENDBRANCH  64  72
ENDBRANCH  58  59
ENDBRANCH  50  58
ENDBRANCH  44  45
ENDBRANCH   4  44
TORSDOF 30
ENDMDL
MODEL 8
REMARK VINA RESULT:    -5.672      5.992      8.322
REMARK INTER + INTRA:         -16.710
REMARK INTER:                 -12.752
REMARK INTRA:                  -3.958
REMARK UNBOUND:                -3.909
REMARK SMILES OC[C@H]1O[C@H](O[C@H]2[C@H](O)[C@H](O)[C@H](O[C@@H]3[C@@H](O)[C@H](O)[C@H](O[C@@H]4[C@H](O)[C@@H](O)[C@@H](O[C@@H]5[C@@H](O)[C@@H](O)[C@H](O)O[C@@H]5CO)O[C@@H]4CO)O[C@@H]3CO)O[C@@H]2CO)[C@H](O)[C@H](O)[C@H]1O
REMARK SMILES IDX 14 1 44 2 43 3 19 4 17 5 15 6 13 7 12 8 7 9 48 10 8 11 47 12
REMARK SMILES IDX 10 13 6 14 5 15 3 16 55 17 4 18 53 19 51 20 2 21 1 22 56 24
REMARK SMILES IDX 54 26 52 28 49 30 50 31 9 33 11 35 45 37 46 38 16 40 18 42
REMARK SMILES IDX 20 44 21 45 40 46 22 47 39 48 24 49 26 50 41 51 42 52 23 54
REMARK SMILES IDX 25 56 27 58 28 59 36 60 29 61 35 62 31 63 33 64 37 65 38 66
REMARK SMILES IDX 30 68 32 70 34 72
REMARK H PARENT 1 23 56 25 54 27 52 29 50 32 9 34 11 36 46 39 16 41 18 43
REMARK H PARENT 42 53 23 55 25 57 38 67 30 69 32 71 34 73
ROOT
ATOM      1  C   UNL     1       9.749 -10.258  -9.376  1.00  0.00    +0.184 C 
ATOM      2  C   UNL     1      10.554  -9.367  -8.415  1.00  0.00    +0.178 C 
ATOM      3  O   UNL     1      10.674  -8.010  -8.883  1.00  0.00    -0.341 OA
ATOM      4  C   UNL     1      11.141  -7.830 -10.222  1.00  0.00    +0.282 C 
ATOM      5  C   UNL     1      10.362  -8.693 -11.235  1.00  0.00    +0.202 C 
ATOM      6  C   UNL     1      10.310 -10.156 -10.797  1.00  0.00    +0.180 C 
ENDROOT
BRANCH   1   7
ATOM      7  O   UNL     1       9.798 -11.623  -8.931  1.00  0.00    -0.341 OA
BRANCH   7   8
ATOM      8  C   UNL     1       8.522 -12.095  -8.477  1.00  0.00    +0.282 C 
ATOM      9  C   UNL     1       8.036 -13.652  -5.993  1.00  0.00    +0.184 C 
ATOM     10  C   UNL     1       8.584 -12.203  -6.042  1.00  0.00    +0.178 C 
ATOM     11  C   UNL     1       7.622 -14.164  -7.386  1.00  0.00    +0.180 C 
ATOM     12  O   UNL     1       8.185 -11.499  -7.226  1.00  0.00    -0.341 OA
ATOM     13  C   UNL     1       8.547 -13.636  -8.470  1.00  0.00    +0.202 C 
BRANCH   9  14
ATOM     14  O   UNL     1       6.826 -13.696  -5.203  1.00  0.00    -0.341 OA
BRANCH  14  15
ATOM     15  C   UNL     1       7.026 -14.195  -3.880  1.00  0.00    +0.282 C 
ATOM     16  C   UNL     1       5.930 -14.545  -1.752  1.00  0.00    +0.178 C 
ATOM     17  C   UNL     1       6.369 -16.017  -1.729  1.00  0.00    +0.177 C 
ATOM     18  O   UNL     1       5.840 -14.041  -3.094  1.00  0.00    -0.341 OA
ATOM     19  C   UNL     1       7.648 -16.222  -2.551  1.00  0.00    +0.179 C 
ATOM     20  C   UNL     1       7.459 -15.677  -3.965  1.00  0.00    +0.202 C 
BRANCH  16  21
ATOM     21  C   UNL     1       6.787 -13.620  -0.872  1.00  0.00    +0.191 C 
BRANCH  21  22
ATOM     22  O   UNL     1       6.366 -13.700   0.488  1.00  0.00    -0.394 OA
ATOM     23  H   UNL     1       5.518 -13.202   0.565  1.00  0.00    +0.210 HD
ENDBRANCH  21  22
ENDBRANCH  16  21
BRANCH  17  24
ATOM     24  O   UNL     1       6.600 -16.503  -0.402  1.00  0.00    -0.387 OA
ATOM     25  H   UNL     1       6.688 -15.724   0.178  1.00  0.00    +0.211 HD
ENDBRANCH  17  24
BRANCH  19  26
ATOM     26  O   UNL     1       7.948 -17.628  -2.615  1.00  0.00    -0.387 OA
ATOM     27  H   UNL     1       8.384 -17.833  -1.764  1.00  0.00    +0.211 HD
ENDBRANCH  19  26
BRANCH  20  28
ATOM     28  O   UNL     1       6.472 -16.492  -4.630  1.00  0.00    -0.385 OA
ATOM     29  H   UNL     1       5.612 -16.150  -4.313  1.00  0.00    +0.211 HD
ENDBRANCH  20  28
ENDBRANCH  14  15
ENDBRANCH   9  14
BRANCH  10  30
ATOM     30  C   UNL     1      10.104 -12.097  -5.816  1.00  0.00    +0.191 C 
BRANCH  30  31
ATOM     31  O   UNL     1      10.692 -13.367  -5.547  1.00  0.00    -0.394 OA
ATOM     32  H   UNL     1      11.214 -13.260  -4.729  1.00  0.00    +0.210 HD
ENDBRANCH  30  31
ENDBRANCH  10  30
BRANCH  11  33
ATOM     33  O   UNL     1       7.668 -15.605  -7.396  1.00  0.00    -0.387 OA
ATOM     34  H   UNL     1       6.734 -15.892  -7.449  1.00  0.00    +0.211 HD
ENDBRANCH  11  33
BRANCH  13  35
ATOM     35  O   UNL     1       9.869 -14.164  -8.226  1.00  0.00    -0.385 OA
ATOM     36  H   UNL     1      10.470 -13.556  -8.704  1.00  0.00    +0.211 HD
ENDBRANCH  13  35
ENDBRANCH   7   8
ENDBRANCH   1   7
BRANCH   2  37
ATOM     37  C   UNL     1      11.917  -9.957  -8.013  1.00  0.00    +0.191 C 
BRANCH  37  38
ATOM     38  O   UNL     1      12.556  -9.110  -7.059  1.00  0.00    -0.394 OA
ATOM     39  H   UNL     1      12.172  -9.333  -6.191  1.00  0.00    +0.210 HD
ENDBRANCH  37  38
ENDBRANCH   2  37
BRANCH   6  40
ATOM     40  O   UNL     1       9.476 -10.889 -11.711  1.00  0.00    -0.387 OA
ATOM     41  H   UNL     1      10.062 -11.514 -12.185  1.00  0.00    +0.211 HD
ENDBRANCH   6  40
BRANCH   5  42
ATOM     42  O   UNL     1      10.913  -8.624 -12.559  1.00  0.00    -0.385 OA
ATOM     43  H   UNL     1      11.836  -8.319 -12.475  1.00  0.00    +0.211 HD
ENDBRANCH   5  42
BRANCH   4  44
ATOM     44  O   UNL     1      12.548  -8.090 -10.285  1.00  0.00    -0.341 OA
BRANCH  44  45
ATOM     45  C   UNL     1      13.376  -7.010  -9.785  1.00  0.00    +0.184 C 
ATOM     46  C   UNL     1      14.876  -7.402  -9.698  1.00  0.00    +0.178 C 
ATOM     47  C   UNL     1      13.170  -5.822 -10.762  1.00  0.00    +0.180 C 
ATOM     48  O   UNL     1      15.500  -7.266 -10.988  1.00  0.00    -0.341 OA
ATOM     49  C   UNL     1      14.439  -4.995 -10.908  1.00  0.00    +0.202 C 
ATOM     50  C   UNL     1      15.594  -5.901 -11.413  1.00  0.00    +0.282 C 
BRANCH  46  51
ATOM     51  C   UNL     1      15.112  -8.837  -9.225  1.00  0.00    +0.191 C 
BRANCH  51  52
ATOM     52  O   UNL     1      15.305  -8.856  -7.809  1.00  0.00    -0.394 OA
ATOM     53  H   UNL     1      16.010  -9.512  -7.651  1.00  0.00    +0.210 HD
ENDBRANCH  51  52
ENDBRANCH  46  51
BRANCH  47  54
ATOM     54  O   UNL     1      12.734  -6.275 -12.054  1.00  0.00    -0.387 OA
ATOM     55  H   UNL     1      13.437  -6.017 -12.683  1.00  0.00    +0.211 HD
ENDBRANCH  47  54
BRANCH  49  56
ATOM     56  O   UNL     1      14.748  -4.397  -9.637  1.00  0.00    -0.385 OA
ATOM     57  H   UNL     1      15.616  -4.782  -9.373  1.00  0.00    +0.211 HD
ENDBRANCH  49  56
BRANCH  50  58
ATOM     58  O   UNL     1      16.815  -5.339 -10.938  1.00  0.00    -0.341 OA
BRANCH  58  59
ATOM     59  C   UNL     1      17.532  -4.554 -11.892  1.00  0.00    +0.184 C 
ATOM     60  C   UNL     1      18.693  -3.831 -11.159  1.00  0.00    +0.178 C 
ATOM     61  C   UNL     1      18.100  -5.449 -13.000  1.00  0.00    +0.180 C 
ATOM     62  O   UNL     1      19.659  -4.774 -10.647  1.00  0.00    -0.342 OA
ATOM     63  C   UNL     1      19.191  -6.367 -12.445  1.00  0.00    +0.201 C 
ATOM     64  C   UNL     1      20.244  -5.541 -11.687  1.00  0.00    +0.279 C 
BRANCH  60  65
ATOM     65  C   UNL     1      18.203  -3.006  -9.957  1.00  0.00    +0.191 C 
BRANCH  65  66
ATOM     66  O   UNL     1      17.749  -3.845  -8.891  1.00  0.00    -0.394 OA
ATOM     67  H   UNL     1      18.556  -4.307  -8.582  1.00  0.00    +0.210 HD
ENDBRANCH  65  66
ENDBRANCH  60  65
BRANCH  61  68
ATOM     68  O   UNL     1      18.645  -4.636 -14.050  1.00  0.00    -0.387 OA
ATOM     69  H   UNL     1      19.090  -3.896 -13.584  1.00  0.00    +0.211 HD
ENDBRANCH  61  68
BRANCH  63  70
ATOM     70  O   UNL     1      19.798  -7.078 -13.537  1.00  0.00    -0.385 OA
ATOM     71  H   UNL     1      20.279  -7.818 -13.113  1.00  0.00    +0.211 HD
ENDBRANCH  63  70
BRANCH  64  72
ATOM     72  O   UNL     1      21.171  -6.449 -11.101  1.00  0.00    -0.366 OA
ATOM     73  H   UNL     1      21.896  -6.511 -11.746  1.00  0.00    +0.213 HD
ENDBRANCH  64  72
ENDBRANCH  58  59
ENDBRANCH  50  58
ENDBRANCH  44  45
ENDBRANCH   4  44
TORSDOF 30
ENDMDL
MODEL 9
REMARK VINA RESULT:    -5.642     13.340     19.846
REMARK INTER + INTRA:         -16.642
REMARK INTER:                 -12.857
REMARK INTRA:                  -3.785
REMARK UNBOUND:                -3.909
REMARK SMILES OC[C@H]1O[C@H](O[C@H]2[C@H](O)[C@H](O)[C@H](O[C@@H]3[C@@H](O)[C@H](O)[C@H](O[C@@H]4[C@H](O)[C@@H](O)[C@@H](O[C@@H]5[C@@H](O)[C@@H](O)[C@H](O)O[C@@H]5CO)O[C@@H]4CO)O[C@@H]3CO)O[C@@H]2CO)[C@H](O)[C@H](O)[C@H]1O
REMARK SMILES IDX 14 1 44 2 43 3 19 4 17 5 15 6 13 7 12 8 7 9 48 10 8 11 47 12
REMARK SMILES IDX 10 13 6 14 5 15 3 16 55 17 4 18 53 19 51 20 2 21 1 22 56 24
REMARK SMILES IDX 54 26 52 28 49 30 50 31 9 33 11 35 45 37 46 38 16 40 18 42
REMARK SMILES IDX 20 44 21 45 40 46 22 47 39 48 24 49 26 50 41 51 42 52 23 54
REMARK SMILES IDX 25 56 27 58 28 59 36 60 29 61 35 62 31 63 33 64 37 65 38 66
REMARK SMILES IDX 30 68 32 70 34 72
REMARK H PARENT 1 23 56 25 54 27 52 29 50 32 9 34 11 36 46 39 16 41 18 43
REMARK H PARENT 42 53 23 55 25 57 38 67 30 69 32 71 34 73
ROOT
ATOM      1  C   UNL     1      22.051   3.125  -2.082  1.00  0.00    +0.184 C 
ATOM      2  C   UNL     1      22.710   2.028  -2.935  1.00  0.00    +0.178 C 
ATOM      3  O   UNL     1      23.406   2.556  -4.080  1.00  0.00    -0.341 OA
ATOM      4  C   UNL     1      22.676   3.454  -4.920  1.00  0.00    +0.282 C 
ATOM      5  C   UNL     1      22.000   4.585  -4.119  1.00  0.00    +0.202 C 
ATOM      6  C   UNL     1      21.178   4.030  -2.955  1.00  0.00    +0.180 C 
ENDROOT
BRANCH   1   7
ATOM      7  O   UNL     1      21.251   2.525  -1.051  1.00  0.00    -0.341 OA
BRANCH   7   8
ATOM      8  C   UNL     1      21.093   3.383   0.086  1.00  0.00    +0.282 C 
ATOM      9  C   UNL     1      21.012   2.502   2.923  1.00  0.00    +0.184 C 
ATOM     10  C   UNL     1      22.229   2.343   1.976  1.00  0.00    +0.178 C 
ATOM     11  C   UNL     1      19.873   3.312   2.274  1.00  0.00    +0.180 C 
ATOM     12  O   UNL     1      22.245   3.319   0.925  1.00  0.00    -0.341 OA
ATOM     13  C   UNL     1      19.766   3.027   0.786  1.00  0.00    +0.202 C 
BRANCH   9  14
ATOM     14  O   UNL     1      21.392   3.261   4.093  1.00  0.00    -0.341 OA
BRANCH  14  15
ATOM     15  C   UNL     1      20.555   3.022   5.225  1.00  0.00    +0.282 C 
ATOM     16  C   UNL     1      19.074   1.398   6.235  1.00  0.00    +0.178 C 
ATOM     17  C   UNL     1      19.835   1.481   7.568  1.00  0.00    +0.177 C 
ATOM     18  O   UNL     1      19.915   1.746   5.124  1.00  0.00    -0.341 OA
ATOM     19  C   UNL     1      20.526   2.842   7.721  1.00  0.00    +0.179 C 
ATOM     20  C   UNL     1      21.412   3.123   6.509  1.00  0.00    +0.202 C 
BRANCH  16  21
ATOM     21  C   UNL     1      17.763   2.201   6.208  1.00  0.00    +0.191 C 
BRANCH  21  22
ATOM     22  O   UNL     1      17.113   2.046   4.948  1.00  0.00    -0.394 OA
ATOM     23  H   UNL     1      17.741   2.347   4.251  1.00  0.00    +0.210 HD
ENDBRANCH  21  22
ENDBRANCH  16  21
BRANCH  17  24
ATOM     24  O   UNL     1      18.985   1.273   8.701  1.00  0.00    -0.387 OA
ATOM     25  H   UNL     1      18.495   2.103   8.850  1.00  0.00    +0.211 HD
ENDBRANCH  17  24
BRANCH  19  26
ATOM     26  O   UNL     1      21.333   2.830   8.912  1.00  0.00    -0.387 OA
ATOM     27  H   UNL     1      21.156   3.688   9.347  1.00  0.00    +0.211 HD
ENDBRANCH  19  26
BRANCH  20  28
ATOM     28  O   UNL     1      22.493   2.170   6.515  1.00  0.00    -0.385 OA
ATOM     29  H   UNL     1      23.305   2.713   6.565  1.00  0.00    +0.211 HD
ENDBRANCH  20  28
ENDBRANCH  14  15
ENDBRANCH   9  14
BRANCH  10  30
ATOM     30  C   UNL     1      22.410   0.920   1.418  1.00  0.00    +0.191 C 
BRANCH  30  31
ATOM     31  O   UNL     1      21.452   0.011   1.954  1.00  0.00    -0.394 OA
ATOM     32  H   UNL     1      20.575   0.406   1.786  1.00  0.00    +0.210 HD
ENDBRANCH  30  31
ENDBRANCH  10  30
BRANCH  11  33
ATOM     33  O   UNL     1      18.624   2.965   2.905  1.00  0.00    -0.387 OA
ATOM     34  H   UNL     1      17.929   3.275   2.289  1.00  0.00    +0.211 HD
ENDBRANCH  11  33
BRANCH  13  35
ATOM     35  O   UNL     1      19.413   1.636   0.620  1.00  0.00    -0.385 OA
ATOM     36  H   UNL     1      20.136   1.261   0.077  1.00  0.00    +0.211 HD
ENDBRANCH  13  35
ENDBRANCH   7   8
ENDBRANCH   1   7
BRANCH   2  37
ATOM     37  C   UNL     1      21.757   0.883  -3.323  1.00  0.00    +0.191 C 
BRANCH  37  38
ATOM     38  O   UNL     1      21.695  -0.080  -2.272  1.00  0.00    -0.394 OA
ATOM     39  H   UNL     1      22.598  -0.155  -1.912  1.00  0.00    +0.210 HD
ENDBRANCH  37  38
ENDBRANCH   2  37
BRANCH   6  40
ATOM     40  O   UNL     1      20.670   5.126  -2.176  1.00  0.00    -0.387 OA
ATOM     41  H   UNL     1      21.038   5.023  -1.275  1.00  0.00    +0.211 HD
ENDBRANCH   6  40
BRANCH   5  42
ATOM     42  O   UNL     1      21.154   5.410  -4.933  1.00  0.00    -0.385 OA
ATOM     43  H   UNL     1      21.702   6.143  -5.273  1.00  0.00    +0.211 HD
ENDBRANCH   5  42
BRANCH   4  44
ATOM     44  O   UNL     1      21.724   2.724  -5.700  1.00  0.00    -0.341 OA
BRANCH  44  45
ATOM     45  C   UNL     1      22.044   2.648  -7.112  1.00  0.00    +0.184 C 
ATOM     46  C   UNL     1      21.926   1.205  -7.673  1.00  0.00    +0.178 C 
ATOM     47  C   UNL     1      21.052   3.603  -7.830  1.00  0.00    +0.180 C 
ATOM     48  O   UNL     1      20.553   0.903  -7.981  1.00  0.00    -0.341 OA
ATOM     49  C   UNL     1      20.681   3.084  -9.211  1.00  0.00    +0.202 C 
ATOM     50  C   UNL     1      20.054   1.670  -9.084  1.00  0.00    +0.282 C 
BRANCH  46  51
ATOM     51  C   UNL     1      22.427   0.127  -6.711  1.00  0.00    +0.191 C 
BRANCH  51  52
ATOM     52  O   UNL     1      23.728   0.470  -6.231  1.00  0.00    -0.394 OA
ATOM     53  H   UNL     1      24.197   0.852  -6.997  1.00  0.00    +0.210 HD
ENDBRANCH  51  52
ENDBRANCH  46  51
BRANCH  47  54
ATOM     54  O   UNL     1      19.863   3.805  -7.050  1.00  0.00    -0.387 OA
ATOM     55  H   UNL     1      19.518   2.912  -6.845  1.00  0.00    +0.211 HD
ENDBRANCH  47  54
BRANCH  49  56
ATOM     56  O   UNL     1      21.861   3.072 -10.032  1.00  0.00    -0.385 OA
ATOM     57  H   UNL     1      22.511   2.513  -9.544  1.00  0.00    +0.211 HD
ENDBRANCH  49  56
BRANCH  50  58
ATOM     58  O   UNL     1      20.315   0.976 -10.302  1.00  0.00    -0.341 OA
BRANCH  58  59
ATOM     59  C   UNL     1      19.156   0.537 -11.009  1.00  0.00    +0.184 C 
ATOM     60  C   UNL     1      19.611  -0.118 -12.339  1.00  0.00    +0.178 C 
ATOM     61  C   UNL     1      18.375  -0.484 -10.173  1.00  0.00    +0.180 C 
ATOM     62  O   UNL     1      20.380  -1.316 -12.098  1.00  0.00    -0.342 OA
ATOM     63  C   UNL     1      19.175  -1.779 -10.020  1.00  0.00    +0.201 C 
ATOM     64  C   UNL     1      19.625  -2.291 -11.398  1.00  0.00    +0.279 C 
BRANCH  60  65
ATOM     65  C   UNL     1      20.502   0.815 -13.177  1.00  0.00    +0.191 C 
BRANCH  65  66
ATOM     66  O   UNL     1      21.779   1.015 -12.565  1.00  0.00    -0.394 OA
ATOM     67  H   UNL     1      22.423   0.874 -13.290  1.00  0.00    +0.210 HD
ENDBRANCH  65  66
ENDBRANCH  60  65
BRANCH  61  68
ATOM     68  O   UNL     1      17.118  -0.770 -10.803  1.00  0.00    -0.387 OA
ATOM     69  H   UNL     1      16.981  -1.730 -10.657  1.00  0.00    +0.211 HD
ENDBRANCH  61  68
BRANCH  63  70
ATOM     70  O   UNL     1      18.353  -2.758  -9.362  1.00  0.00    -0.385 OA
ATOM     71  H   UNL     1      17.606  -2.907  -9.978  1.00  0.00    +0.211 HD
ENDBRANCH  63  70
BRANCH  64  72
ATOM     72  O   UNL     1      20.454  -3.430 -11.191  1.00  0.00    -0.366 OA
ATOM     73  H   UNL     1      19.981  -3.961 -10.528  1.00  0.00    +0.213 HD
ENDBRANCH  64  72
ENDBRANCH  58  59
ENDBRANCH  50  58
ENDBRANCH  44  45
ENDBRANCH   4  44
TORSDOF 30
ENDMDL
