MODEL 1
REMARK VINA RESULT:    -6.850      0.000      0.000
REMARK INTER + INTRA:         -24.932
REMARK INTER:                 -17.262
REMARK INTRA:                  -7.669
REMARK UNBOUND:                -7.669
REMARK SMILES N[C@@H]1[C@@H](O[C@@H]2[C@H](N)[C@H](O[C@@H]3O[C@H](CO)[C@@H](O)[C@H](O[C@@H]4O[C@@H](CO)[C@@H](O)[C@H](O)[C@H]4N)[C@H]3N)O[C@@H](CO[C@H]3O[C@@H](CO)[C@@H](O)[C@H](O)[C@H]3N)[C@H]2O[C@H]2O[C@@H](CO)[C@@H](O)[C@@H](O)[C@H]2N)O[C@H](CO)[C@H](O)[C@H]1O
REMARK SMILES IDX 33 1 47 2 5 3 6 4 8 5 32 6 34 7 35 8 36 9 38 10 41 11 37 12
REMARK SMILES IDX 43 13 45 14 39 15 40 16 42 18 44 20 46 22 48 25 49 26 58 27
REMARK SMILES IDX 50 28 56 29 51 30 54 31 59 32 57 35 52 37 53 38 55 40 4 42
REMARK SMILES IDX 3 43 2 44 60 45 66 46 61 47 64 48 1 49 67 52 62 54 63 55
REMARK SMILES IDX 65 57 9 59 10 60 30 61 11 62 17 63 12 64 15 65 31 66 18 69
REMARK SMILES IDX 19 70 28 71 20 72 26 73 21 74 24 75 29 76 27 79 22 81 23 82
REMARK SMILES IDX 25 84 13 86 14 87 16 89 7 91
REMARK H PARENT 40 17 42 19 44 21 46 23 46 24 59 33 59 34 57 36 53 39 55 41
REMARK H PARENT 1 50 1 51 67 53 63 56 65 58 31 67 31 68 29 77 29 78 27 80
REMARK H PARENT 23 83 25 85 14 88 16 90 7 92 7 93
ROOT
ATOM      1  C   UNL     1     -10.742  -9.606  -1.507  1.00  0.00    +0.179 C 
ATOM      2  C   UNL     1     -11.287 -10.888  -2.170  1.00  0.00    +0.183 C 
ATOM      3  C   UNL     1     -12.597 -10.609  -2.934  1.00  0.00    +0.175 C 
ATOM      4  C   UNL     1     -12.400  -9.423  -3.902  1.00  0.00    +0.140 C 
ATOM      5  C   UNL     1     -11.874  -8.200  -3.098  1.00  0.00    +0.273 C 
ATOM      6  O   UNL     1     -10.651  -8.522  -2.449  1.00  0.00    -0.342 OA
ENDROOT
BRANCH   1   7
ATOM      7  C   UNL     1     -11.522  -9.205  -0.231  1.00  0.00    +0.198 C 
BRANCH   7   8
ATOM      8  O   UNL     1     -11.175  -7.881   0.188  1.00  0.00    -0.348 OA
BRANCH   8   9
ATOM      9  C   UNL     1     -10.095  -7.865   1.134  1.00  0.00    +0.270 C 
ATOM     10  C   UNL     1      -8.490  -9.281   2.257  1.00  0.00    +0.178 C 
ATOM     11  C   UNL     1      -7.959  -7.920   2.739  1.00  0.00    +0.176 C 
ATOM     12  O   UNL     1      -9.621  -9.187   1.380  1.00  0.00    -0.342 OA
ATOM     13  C   UNL     1      -7.777  -6.927   1.582  1.00  0.00    +0.167 C 
ATOM     14  C   UNL     1      -8.956  -6.956   0.583  1.00  0.00    +0.139 C 
BRANCH  10  15
ATOM     15  C   UNL     1      -7.438 -10.178   1.585  1.00  0.00    +0.191 C 
BRANCH  15  16
ATOM     16  O   UNL     1      -7.809 -10.520   0.252  1.00  0.00    -0.394 OA
ATOM     17  H   UNL     1      -7.762  -9.703  -0.276  1.00  0.00    +0.210 HD
ENDBRANCH  15  16
ENDBRANCH  10  15
BRANCH  11  18
ATOM     18  O   UNL     1      -6.744  -8.023   3.492  1.00  0.00    -0.388 OA
ATOM     19  H   UNL     1      -6.044  -8.310   2.876  1.00  0.00    +0.211 HD
ENDBRANCH  11  18
BRANCH  13  20
ATOM     20  O   UNL     1      -7.652  -5.608   2.152  1.00  0.00    -0.388 OA
ATOM     21  H   UNL     1      -7.595  -5.007   1.385  1.00  0.00    +0.211 HD
ENDBRANCH  13  20
BRANCH  14  22
ATOM     22  N   UNL     1      -8.485  -7.431  -0.754  1.00  0.00    -0.321 NA
ATOM     23  H   UNL     1      -9.117  -6.989  -1.442  1.00  0.00    +0.119 HD
ATOM     24  H   UNL     1      -7.585  -6.951  -0.933  1.00  0.00    +0.119 HD
ENDBRANCH  14  22
ENDBRANCH   8   9
ENDBRANCH   7   8
ENDBRANCH   1   7
BRANCH   2  25
ATOM     25  O   UNL     1     -11.541 -11.889  -1.167  1.00  0.00    -0.342 OA
BRANCH  25  26
ATOM     26  C   UNL     1     -10.527 -12.901  -1.138  1.00  0.00    +0.270 C 
ATOM     27  C   UNL     1     -11.214 -14.282  -1.373  1.00  0.00    +0.139 C 
ATOM     28  O   UNL     1      -9.842 -12.885   0.112  1.00  0.00    -0.342 OA
ATOM     29  C   UNL     1     -10.166 -15.428  -1.296  1.00  0.00    +0.167 C 
ATOM     30  C   UNL     1      -8.870 -13.925   0.289  1.00  0.00    +0.178 C 
ATOM     31  C   UNL     1      -8.779 -14.910  -0.895  1.00  0.00    +0.176 C 
BRANCH  27  32
ATOM     32  N   UNL     1     -12.377 -14.477  -0.468  1.00  0.00    -0.321 NA
ATOM     33  H   UNL     1     -12.520 -13.596   0.038  1.00  0.00    +0.119 HD
ATOM     34  H   UNL     1     -13.204 -14.555  -1.065  1.00  0.00    +0.119 HD
ENDBRANCH  27  32
BRANCH  29  35
ATOM     35  O   UNL     1     -10.530 -16.477  -0.376  1.00  0.00    -0.388 OA
ATOM     36  H   UNL     1     -11.365 -16.166   0.034  1.00  0.00    +0.211 HD
ENDBRANCH  29  35
BRANCH  30  37
ATOM     37  C   UNL     1      -9.099 -14.577   1.669  1.00  0.00    +0.191 C 
BRANCH  37  38
ATOM     38  O   UNL     1     -10.469 -14.647   2.057  1.00  0.00    -0.394 OA
ATOM     39  H   UNL     1     -10.489 -14.885   3.012  1.00  0.00    +0.210 HD
ENDBRANCH  37  38
ENDBRANCH  30  37
BRANCH  31  40
ATOM     40  O   UNL     1      -7.916 -16.020  -0.628  1.00  0.00    -0.388 OA
ATOM     41  H   UNL     1      -8.439 -16.837  -0.738  1.00  0.00    +0.211 HD
ENDBRANCH  31  40
ENDBRANCH  25  26
ENDBRANCH   2  25
BRANCH   3  42
ATOM     42  O   UNL     1     -12.994 -11.830  -3.596  1.00  0.00    -0.343 OA
BRANCH  42  43
ATOM     43  C   UNL     1     -14.297 -12.302  -3.236  1.00  0.00    +0.270 C 
ATOM     44  C   UNL     1     -15.308 -11.187  -3.613  1.00  0.00    +0.139 C 
ATOM     45  O   UNL     1     -14.301 -12.584  -1.834  1.00  0.00    -0.342 OA
ATOM     46  C   UNL     1     -16.698 -11.486  -3.032  1.00  0.00    +0.167 C 
ATOM     47  C   UNL     1     -15.580 -12.922  -1.286  1.00  0.00    +0.178 C 
ATOM     48  C   UNL     1     -16.595 -11.793  -1.537  1.00  0.00    +0.176 C 
BRANCH  44  49
ATOM     49  N   UNL     1     -15.403 -11.006  -5.083  1.00  0.00    -0.321 NA
ATOM     50  H   UNL     1     -14.877 -10.168  -5.334  1.00  0.00    +0.119 HD
ATOM     51  H   UNL     1     -16.387 -10.812  -5.297  1.00  0.00    +0.119 HD
ENDBRANCH  44  49
BRANCH  46  52
ATOM     52  O   UNL     1     -17.558 -10.347  -3.221  1.00  0.00    -0.388 OA
ATOM     53  H   UNL     1     -18.455 -10.668  -2.998  1.00  0.00    +0.211 HD
ENDBRANCH  46  52
BRANCH  47  54
ATOM     54  C   UNL     1     -16.041 -14.320  -1.739  1.00  0.00    +0.191 C 
BRANCH  54  55
ATOM     55  O   UNL     1     -15.212 -15.330  -1.172  1.00  0.00    -0.394 OA
ATOM     56  H   UNL     1     -14.905 -14.995  -0.307  1.00  0.00    +0.210 HD
ENDBRANCH  54  55
ENDBRANCH  47  54
BRANCH  48  57
ATOM     57  O   UNL     1     -17.907 -12.057  -1.027  1.00  0.00    -0.388 OA
ATOM     58  H   UNL     1     -18.294 -11.199  -0.739  1.00  0.00    +0.211 HD
ENDBRANCH  48  57
ENDBRANCH  42  43
ENDBRANCH   3  42
BRANCH   5  59
ATOM     59  O   UNL     1     -11.680  -7.123  -4.018  1.00  0.00    -0.320 OA
BRANCH  59  60
ATOM     60  C   UNL     1     -11.960  -5.833  -3.473  1.00  0.00    +0.273 C 
ATOM     61  C   UNL     1     -13.216  -5.859  -2.553  1.00  0.00    +0.140 C 
ATOM     62  O   UNL     1     -10.791  -5.481  -2.719  1.00  0.00    -0.342 OA
ATOM     63  C   UNL     1     -13.344  -4.506  -1.823  1.00  0.00    +0.174 C 
ATOM     64  C   UNL     1     -10.883  -4.182  -2.111  1.00  0.00    +0.178 C 
ATOM     65  C   UNL     1     -12.038  -4.139  -1.110  1.00  0.00    +0.176 C 
BRANCH  61  66
ATOM     66  N   UNL     1     -14.472  -6.134  -3.279  1.00  0.00    -0.321 NA
ATOM     67  H   UNL     1     -15.248  -6.139  -2.603  1.00  0.00    +0.119 HD
ATOM     68  H   UNL     1     -14.431  -7.096  -3.650  1.00  0.00    +0.119 HD
ENDBRANCH  61  66
BRANCH  63  69
ATOM     69  O   UNL     1     -14.369  -4.576  -0.811  1.00  0.00    -0.343 OA
BRANCH  69  70
ATOM     70  C   UNL     1     -14.050  -5.504   0.229  1.00  0.00    +0.270 C 
ATOM     71  C   UNL     1     -14.530  -4.929   1.594  1.00  0.00    +0.139 C 
ATOM     72  O   UNL     1     -14.633  -6.773  -0.104  1.00  0.00    -0.342 OA
ATOM     73  C   UNL     1     -14.854  -6.113   2.512  1.00  0.00    +0.167 C 
ATOM     74  C   UNL     1     -15.983  -6.912   0.369  1.00  0.00    +0.178 C 
ATOM     75  C   UNL     1     -16.005  -6.944   1.917  1.00  0.00    +0.176 C 
BRANCH  71  76
ATOM     76  N   UNL     1     -13.556  -3.998   2.221  1.00  0.00    -0.321 NA
ATOM     77  H   UNL     1     -12.726  -4.014   1.616  1.00  0.00    +0.119 HD
ATOM     78  H   UNL     1     -13.917  -3.037   2.109  1.00  0.00    +0.119 HD
ENDBRANCH  71  76
BRANCH  73  79
ATOM     79  O   UNL     1     -15.225  -5.657   3.823  1.00  0.00    -0.388 OA
ATOM     80  H   UNL     1     -15.258  -4.683   3.750  1.00  0.00    +0.211 HD
ENDBRANCH  73  79
BRANCH  74  81
ATOM     81  C   UNL     1     -16.601  -8.149  -0.296  1.00  0.00    +0.191 C 
BRANCH  81  82
ATOM     82  O   UNL     1     -16.126  -8.301  -1.637  1.00  0.00    -0.394 OA
ATOM     83  H   UNL     1     -16.865  -8.063  -2.226  1.00  0.00    +0.210 HD
ENDBRANCH  81  82
ENDBRANCH  74  81
BRANCH  75  84
ATOM     84  O   UNL     1     -15.915  -8.250   2.503  1.00  0.00    -0.388 OA
ATOM     85  H   UNL     1     -16.307  -8.189   3.404  1.00  0.00    +0.211 HD
ENDBRANCH  75  84
ENDBRANCH  69  70
ENDBRANCH  63  69
BRANCH  64  86
ATOM     86  C   UNL     1      -9.539  -3.905  -1.431  1.00  0.00    +0.191 C 
BRANCH  86  87
ATOM     87  O   UNL     1      -9.497  -2.539  -1.003  1.00  0.00    -0.394 OA
ATOM     88  H   UNL     1      -8.822  -2.122  -1.575  1.00  0.00    +0.210 HD
ENDBRANCH  86  87
ENDBRANCH  64  86
BRANCH  65  89
ATOM     89  O   UNL     1     -12.160  -2.832  -0.537  1.00  0.00    -0.388 OA
ATOM     90  H   UNL     1     -12.680  -2.309  -1.181  1.00  0.00    +0.211 HD
ENDBRANCH  65  89
ENDBRANCH  59  60
ENDBRANCH   5  59
BRANCH   4  91
ATOM     91  N   UNL     1     -11.504  -9.797  -5.025  1.00  0.00    -0.321 NA
ATOM     92  H   UNL     1     -11.750 -10.746  -5.316  1.00  0.00    +0.119 HD
ATOM     93  H   UNL     1     -10.547  -9.825  -4.664  1.00  0.00    +0.119 HD
ENDBRANCH   4  91
TORSDOF 36
ENDMDL
MODEL 2
REMARK VINA RESULT:    -6.488      3.806      9.143
REMARK INTER + INTRA:         -24.018
REMARK INTER:                 -18.135
REMARK INTRA:                  -5.883
REMARK UNBOUND:                -7.669
REMARK SMILES N[C@@H]1[C@@H](O[C@@H]2[C@H](N)[C@H](O[C@@H]3O[C@H](CO)[C@@H](O)[C@H](O[C@@H]4O[C@@H](CO)[C@@H](O)[C@H](O)[C@H]4N)[C@H]3N)O[C@@H](CO[C@H]3O[C@@H](CO)[C@@H](O)[C@H](O)[C@H]3N)[C@H]2O[C@H]2O[C@@H](CO)[C@@H](O)[C@@H](O)[C@H]2N)O[C@H](CO)[C@H](O)[C@H]1O
REMARK SMILES IDX 33 1 47 2 5 3 6 4 8 5 32 6 34 7 35 8 36 9 38 10 41 11 37 12
REMARK SMILES IDX 43 13 45 14 39 15 40 16 42 18 44 20 46 22 48 25 49 26 58 27
REMARK SMILES IDX 50 28 56 29 51 30 54 31 59 32 57 35 52 37 53 38 55 40 4 42
REMARK SMILES IDX 3 43 2 44 60 45 66 46 61 47 64 48 1 49 67 52 62 54 63 55
REMARK SMILES IDX 65 57 9 59 10 60 30 61 11 62 17 63 12 64 15 65 31 66 18 69
REMARK SMILES IDX 19 70 28 71 20 72 26 73 21 74 24 75 29 76 27 79 22 81 23 82
REMARK SMILES IDX 25 84 13 86 14 87 16 89 7 91
REMARK H PARENT 40 17 42 19 44 21 46 23 46 24 59 33 59 34 57 36 53 39 55 41
REMARK H PARENT 1 50 1 51 67 53 63 56 65 58 31 67 31 68 29 77 29 78 27 80
REMARK H PARENT 23 83 25 85 14 88 16 90 7 92 7 93
ROOT
ATOM      1  C   UNL     1      -9.016  -7.468   1.332  1.00  0.00    +0.179 C 
ATOM      2  C   UNL     1     -10.392  -7.995   0.874  1.00  0.00    +0.183 C 
ATOM      3  C   UNL     1     -10.255  -9.329   0.112  1.00  0.00    +0.175 C 
ATOM      4  C   UNL     1      -9.432 -10.332   0.951  1.00  0.00    +0.140 C 
ATOM      5  C   UNL     1      -8.069  -9.681   1.318  1.00  0.00    +0.273 C 
ATOM      6  O   UNL     1      -8.274  -8.475   2.044  1.00  0.00    -0.342 OA
ENDROOT
BRANCH   1   7
ATOM      7  C   UNL     1      -8.191  -6.845   0.180  1.00  0.00    +0.198 C 
BRANCH   7   8
ATOM      8  O   UNL     1      -7.721  -5.540   0.531  1.00  0.00    -0.348 OA
BRANCH   8   9
ATOM      9  C   UNL     1      -8.527  -4.492  -0.028  1.00  0.00    +0.270 C 
ATOM     10  C   UNL     1      -8.509  -2.150  -0.624  1.00  0.00    +0.178 C 
ATOM     11  C   UNL     1      -9.875  -2.519  -1.226  1.00  0.00    +0.176 C 
ATOM     12  O   UNL     1      -7.822  -3.254  -0.018  1.00  0.00    -0.342 OA
ATOM     13  C   UNL     1      -9.800  -3.775  -2.108  1.00  0.00    +0.167 C 
ATOM     14  C   UNL     1      -8.935  -4.891  -1.479  1.00  0.00    +0.139 C 
BRANCH  10  15
ATOM     15  C   UNL     1      -7.542  -1.465  -1.604  1.00  0.00    +0.191 C 
BRANCH  15  16
ATOM     16  O   UNL     1      -6.305  -2.167  -1.702  1.00  0.00    -0.394 OA
ATOM     17  H   UNL     1      -6.376  -2.953  -1.131  1.00  0.00    +0.210 HD
ENDBRANCH  15  16
ENDBRANCH  10  15
BRANCH  11  18
ATOM     18  O   UNL     1     -10.480  -1.444  -1.955  1.00  0.00    -0.388 OA
ATOM     19  H   UNL     1     -10.765  -1.802  -2.816  1.00  0.00    +0.211 HD
ENDBRANCH  11  18
BRANCH  13  20
ATOM     20  O   UNL     1     -11.146  -4.253  -2.305  1.00  0.00    -0.388 OA
ATOM     21  H   UNL     1     -11.678  -3.449  -2.462  1.00  0.00    +0.211 HD
ENDBRANCH  13  20
BRANCH  14  22
ATOM     22  N   UNL     1      -7.732  -5.147  -2.327  1.00  0.00    -0.321 NA
ATOM     23  H   UNL     1      -7.971  -5.970  -2.904  1.00  0.00    +0.119 HD
ATOM     24  H   UNL     1      -7.700  -4.383  -3.025  1.00  0.00    +0.119 HD
ENDBRANCH  14  22
ENDBRANCH   8   9
ENDBRANCH   7   8
ENDBRANCH   1   7
BRANCH   2  25
ATOM     25  O   UNL     1     -11.022  -7.032   0.010  1.00  0.00    -0.342 OA
BRANCH  25  26
ATOM     26  C   UNL     1     -12.254  -6.540   0.551  1.00  0.00    +0.270 C 
ATOM     27  C   UNL     1     -13.411  -6.977  -0.402  1.00  0.00    +0.139 C 
ATOM     28  O   UNL     1     -12.213  -5.120   0.674  1.00  0.00    -0.342 OA
ATOM     29  C   UNL     1     -14.770  -6.421   0.107  1.00  0.00    +0.167 C 
ATOM     30  C   UNL     1     -13.435  -4.509   1.112  1.00  0.00    +0.178 C 
ATOM     31  C   UNL     1     -14.595  -5.503   1.323  1.00  0.00    +0.176 C 
BRANCH  27  32
ATOM     32  N   UNL     1     -13.117  -6.629  -1.817  1.00  0.00    -0.321 NA
ATOM     33  H   UNL     1     -13.571  -5.730  -2.010  1.00  0.00    +0.119 HD
ATOM     34  H   UNL     1     -12.118  -6.415  -1.865  1.00  0.00    +0.119 HD
ENDBRANCH  27  32
BRANCH  29  35
ATOM     35  O   UNL     1     -15.502  -5.689  -0.898  1.00  0.00    -0.388 OA
ATOM     36  H   UNL     1     -16.381  -6.123  -0.928  1.00  0.00    +0.211 HD
ENDBRANCH  29  35
BRANCH  30  37
ATOM     37  C   UNL     1     -13.749  -3.321   0.179  1.00  0.00    +0.191 C 
BRANCH  37  38
ATOM     38  O   UNL     1     -13.522  -3.594  -1.202  1.00  0.00    -0.394 OA
ATOM     39  H   UNL     1     -14.156  -4.298  -1.468  1.00  0.00    +0.210 HD
ENDBRANCH  37  38
ENDBRANCH  30  37
BRANCH  31  40
ATOM     40  O   UNL     1     -15.837  -4.853   1.611  1.00  0.00    -0.388 OA
ATOM     41  H   UNL     1     -16.101  -5.100   2.517  1.00  0.00    +0.211 HD
ENDBRANCH  31  40
ENDBRANCH  25  26
ENDBRANCH   2  25
BRANCH   3  42
ATOM     42  O   UNL     1     -11.583  -9.799  -0.203  1.00  0.00    -0.343 OA
BRANCH  42  43
ATOM     43  C   UNL     1     -11.628 -10.818  -1.208  1.00  0.00    +0.270 C 
ATOM     44  C   UNL     1     -12.511 -10.281  -2.366  1.00  0.00    +0.139 C 
ATOM     45  O   UNL     1     -12.170 -12.005  -0.620  1.00  0.00    -0.342 OA
ATOM     46  C   UNL     1     -12.834 -11.394  -3.373  1.00  0.00    +0.167 C 
ATOM     47  C   UNL     1     -12.422 -13.075  -1.537  1.00  0.00    +0.178 C 
ATOM     48  C   UNL     1     -13.387 -12.624  -2.649  1.00  0.00    +0.176 C 
BRANCH  44  49
ATOM     49  N   UNL     1     -11.868  -9.141  -3.064  1.00  0.00    -0.321 NA
ATOM     50  H   UNL     1     -11.217  -9.517  -3.754  1.00  0.00    +0.119 HD
ATOM     51  H   UNL     1     -11.305  -8.642  -2.367  1.00  0.00    +0.119 HD
ENDBRANCH  44  49
BRANCH  46  52
ATOM     52  O   UNL     1     -13.812 -10.925  -4.319  1.00  0.00    -0.388 OA
ATOM     53  H   UNL     1     -14.664 -11.292  -4.005  1.00  0.00    +0.211 HD
ENDBRANCH  46  52
BRANCH  47  54
ATOM     54  C   UNL     1     -11.115 -13.718  -2.036  1.00  0.00    +0.191 C 
BRANCH  54  55
ATOM     55  O   UNL     1     -11.227 -15.137  -2.050  1.00  0.00    -0.394 OA
ATOM     56  H   UNL     1     -11.927 -15.374  -1.410  1.00  0.00    +0.210 HD
ENDBRANCH  54  55
ENDBRANCH  47  54
BRANCH  48  57
ATOM     57  O   UNL     1     -13.686 -13.636  -3.616  1.00  0.00    -0.388 OA
ATOM     58  H   UNL     1     -14.083 -14.398  -3.138  1.00  0.00    +0.211 HD
ENDBRANCH  48  57
ENDBRANCH  42  43
ENDBRANCH   3  42
BRANCH   5  59
ATOM     59  O   UNL     1      -7.336 -10.619   2.110  1.00  0.00    -0.320 OA
BRANCH  59  60
ATOM     60  C   UNL     1      -6.089 -10.122   2.598  1.00  0.00    +0.273 C 
ATOM     61  C   UNL     1      -6.069 -10.051   4.153  1.00  0.00    +0.140 C 
ATOM     62  O   UNL     1      -5.102 -11.050   2.123  1.00  0.00    -0.342 OA
ATOM     63  C   UNL     1      -4.639  -9.722   4.632  1.00  0.00    +0.174 C 
ATOM     64  C   UNL     1      -3.764 -10.690   2.501  1.00  0.00    +0.178 C 
ATOM     65  C   UNL     1      -3.618 -10.689   4.023  1.00  0.00    +0.176 C 
BRANCH  61  66
ATOM     66  N   UNL     1      -7.005  -9.054   4.710  1.00  0.00    -0.321 NA
ATOM     67  H   UNL     1      -6.870  -8.163   4.213  1.00  0.00    +0.119 HD
ATOM     68  H   UNL     1      -6.734  -8.862   5.686  1.00  0.00    +0.119 HD
ENDBRANCH  61  66
BRANCH  63  69
ATOM     69  O   UNL     1      -4.545  -9.859   6.065  1.00  0.00    -0.343 OA
BRANCH  69  70
ATOM     70  C   UNL     1      -4.785 -11.199   6.503  1.00  0.00    +0.270 C 
ATOM     71  C   UNL     1      -3.765 -11.561   7.623  1.00  0.00    +0.139 C 
ATOM     72  O   UNL     1      -6.157 -11.301   6.914  1.00  0.00    -0.342 OA
ATOM     73  C   UNL     1      -4.424 -12.599   8.538  1.00  0.00    +0.167 C 
ATOM     74  C   UNL     1      -6.358 -10.954   8.294  1.00  0.00    +0.178 C 
ATOM     75  C   UNL     1      -5.669 -11.996   9.210  1.00  0.00    +0.176 C 
BRANCH  71  76
ATOM     76  N   UNL     1      -2.458 -12.039   7.101  1.00  0.00    -0.321 NA
ATOM     77  H   UNL     1      -1.793 -11.276   7.271  1.00  0.00    +0.119 HD
ATOM     78  H   UNL     1      -2.123 -12.793   7.722  1.00  0.00    +0.119 HD
ENDBRANCH  71  76
BRANCH  73  79
ATOM     79  O   UNL     1      -3.505 -13.045   9.550  1.00  0.00    -0.388 OA
ATOM     80  H   UNL     1      -3.810 -12.614  10.372  1.00  0.00    +0.211 HD
ENDBRANCH  73  79
BRANCH  74  81
ATOM     81  C   UNL     1      -7.865 -10.799   8.537  1.00  0.00    +0.191 C 
BRANCH  81  82
ATOM     82  O   UNL     1      -8.255  -9.424   8.474  1.00  0.00    -0.394 OA
ATOM     83  H   UNL     1      -7.441  -8.897   8.566  1.00  0.00    +0.210 HD
ENDBRANCH  81  82
ENDBRANCH  74  81
BRANCH  75  84
ATOM     84  O   UNL     1      -6.495 -13.098   9.612  1.00  0.00    -0.388 OA
ATOM     85  H   UNL     1      -6.905 -12.853  10.472  1.00  0.00    +0.211 HD
ENDBRANCH  75  84
ENDBRANCH  69  70
ENDBRANCH  63  69
BRANCH  64  86
ATOM     86  C   UNL     1      -2.821 -11.705   1.848  1.00  0.00    +0.191 C 
BRANCH  86  87
ATOM     87  O   UNL     1      -1.627 -11.037   1.423  1.00  0.00    -0.394 OA
ATOM     88  H   UNL     1      -1.602 -11.169   0.454  1.00  0.00    +0.210 HD
ENDBRANCH  86  87
ENDBRANCH  64  86
BRANCH  65  89
ATOM     89  O   UNL     1      -2.297 -10.286   4.403  1.00  0.00    -0.388 OA
ATOM     90  H   UNL     1      -2.403  -9.787   5.239  1.00  0.00    +0.211 HD
ENDBRANCH  65  89
ENDBRANCH  59  60
ENDBRANCH   5  59
BRANCH   4  91
ATOM     91  N   UNL     1     -10.194 -10.777   2.144  1.00  0.00    -0.321 NA
ATOM     92  H   UNL     1     -11.189 -10.736   1.911  1.00  0.00    +0.119 HD
ATOM     93  H   UNL     1     -10.026 -10.099   2.891  1.00  0.00    +0.119 HD
ENDBRANCH   4  91
TORSDOF 36
ENDMDL
MODEL 3
REMARK VINA RESULT:    -6.423      2.602      9.639
REMARK INTER + INTRA:         -23.854
REMARK INTER:                 -16.794
REMARK INTRA:                  -7.061
REMARK UNBOUND:                -7.669
REMARK SMILES N[C@@H]1[C@@H](O[C@@H]2[C@H](N)[C@H](O[C@@H]3O[C@H](CO)[C@@H](O)[C@H](O[C@@H]4O[C@@H](CO)[C@@H](O)[C@H](O)[C@H]4N)[C@H]3N)O[C@@H](CO[C@H]3O[C@@H](CO)[C@@H](O)[C@H](O)[C@H]3N)[C@H]2O[C@H]2O[C@@H](CO)[C@@H](O)[C@@H](O)[C@H]2N)O[C@H](CO)[C@H](O)[C@H]1O
REMARK SMILES IDX 33 1 47 2 5 3 6 4 8 5 32 6 34 7 35 8 36 9 38 10 41 11 37 12
REMARK SMILES IDX 43 13 45 14 39 15 40 16 42 18 44 20 46 22 48 25 49 26 58 27
REMARK SMILES IDX 50 28 56 29 51 30 54 31 59 32 57 35 52 37 53 38 55 40 4 42
REMARK SMILES IDX 3 43 2 44 60 45 66 46 61 47 64 48 1 49 67 52 62 54 63 55
REMARK SMILES IDX 65 57 9 59 10 60 30 61 11 62 17 63 12 64 15 65 31 66 18 69
REMARK SMILES IDX 19 70 28 71 20 72 26 73 21 74 24 75 29 76 27 79 22 81 23 82
REMARK SMILES IDX 25 84 13 86 14 87 16 89 7 91
REMARK H PARENT 40 17 42 19 44 21 46 23 46 24 59 33 59 34 57 36 53 39 55 41
REMARK H PARENT 1 50 1 51 67 53 63 56 65 58 31 67 31 68 29 77 29 78 27 80
REMARK H PARENT 23 83 25 85 14 88 16 90 7 92 7 93
ROOT
ATOM      1  C   UNL     1     -14.725  -5.838  -2.760  1.00  0.00    +0.179 C 
ATOM      2  C   UNL     1     -13.320  -5.203  -2.826  1.00  0.00    +0.183 C 
ATOM      3  C   UNL     1     -12.219  -6.251  -2.567  1.00  0.00    +0.175 C 
ATOM      4  C   UNL     1     -12.416  -7.465  -3.500  1.00  0.00    +0.140 C 
ATOM      5  C   UNL     1     -13.858  -8.016  -3.311  1.00  0.00    +0.273 C 
ATOM      6  O   UNL     1     -14.817  -7.005  -3.598  1.00  0.00    -0.342 OA
ENDROOT
BRANCH   1   7
ATOM      7  C   UNL     1     -15.193  -6.124  -1.312  1.00  0.00    +0.198 C 
BRANCH   7   8
ATOM      8  O   UNL     1     -16.092  -5.110  -0.854  1.00  0.00    -0.348 OA
BRANCH   8   9
ATOM      9  C   UNL     1     -16.271  -5.131   0.570  1.00  0.00    +0.270 C 
ATOM     10  C   UNL     1     -15.607  -4.028   2.616  1.00  0.00    +0.178 C 
ATOM     11  C   UNL     1     -16.677  -4.962   3.206  1.00  0.00    +0.176 C 
ATOM     12  O   UNL     1     -15.452  -4.145   1.195  1.00  0.00    -0.342 OA
ATOM     13  C   UNL     1     -17.996  -4.902   2.422  1.00  0.00    +0.167 C 
ATOM     14  C   UNL     1     -17.777  -4.891   0.892  1.00  0.00    +0.139 C 
BRANCH  10  15
ATOM     15  C   UNL     1     -15.799  -2.541   2.955  1.00  0.00    +0.191 C 
BRANCH  15  16
ATOM     16  O   UNL     1     -15.603  -2.285   4.343  1.00  0.00    -0.394 OA
ATOM     17  H   UNL     1     -16.400  -2.601   4.806  1.00  0.00    +0.210 HD
ENDBRANCH  15  16
ENDBRANCH  10  15
BRANCH  11  18
ATOM     18  O   UNL     1     -16.923  -4.730   4.599  1.00  0.00    -0.388 OA
ATOM     19  H   UNL     1     -17.441  -5.486   4.932  1.00  0.00    +0.211 HD
ENDBRANCH  11  18
BRANCH  13  20
ATOM     20  O   UNL     1     -18.781  -6.053   2.795  1.00  0.00    -0.388 OA
ATOM     21  H   UNL     1     -18.126  -6.729   3.056  1.00  0.00    +0.211 HD
ENDBRANCH  13  20
BRANCH  14  22
ATOM     22  N   UNL     1     -18.254  -3.598   0.315  1.00  0.00    -0.321 NA
ATOM     23  H   UNL     1     -19.270  -3.572   0.498  1.00  0.00    +0.119 HD
ATOM     24  H   UNL     1     -17.893  -2.852   0.935  1.00  0.00    +0.119 HD
ENDBRANCH  14  22
ENDBRANCH   8   9
ENDBRANCH   7   8
ENDBRANCH   1   7
BRANCH   2  25
ATOM     25  O   UNL     1     -13.208  -4.160  -1.841  1.00  0.00    -0.342 OA
BRANCH  25  26
ATOM     26  C   UNL     1     -13.460  -2.861  -2.392  1.00  0.00    +0.270 C 
ATOM     27  C   UNL     1     -13.084  -1.796  -1.315  1.00  0.00    +0.139 C 
ATOM     28  O   UNL     1     -14.830  -2.735  -2.767  1.00  0.00    -0.342 OA
ATOM     29  C   UNL     1     -13.391  -0.365  -1.839  1.00  0.00    +0.167 C 
ATOM     30  C   UNL     1     -15.217  -1.438  -3.239  1.00  0.00    +0.178 C 
ATOM     31  C   UNL     1     -14.084  -0.391  -3.206  1.00  0.00    +0.176 C 
BRANCH  27  32
ATOM     32  N   UNL     1     -13.714  -2.098  -0.002  1.00  0.00    -0.321 NA
ATOM     33  H   UNL     1     -13.932  -1.201   0.444  1.00  0.00    +0.119 HD
ATOM     34  H   UNL     1     -14.631  -2.504  -0.203  1.00  0.00    +0.119 HD
ENDBRANCH  27  32
BRANCH  29  35
ATOM     35  O   UNL     1     -14.212   0.410  -0.941  1.00  0.00    -0.388 OA
ATOM     36  H   UNL     1     -13.608   0.662  -0.210  1.00  0.00    +0.211 HD
ENDBRANCH  29  35
BRANCH  30  37
ATOM     37  C   UNL     1     -16.515  -1.022  -2.516  1.00  0.00    +0.191 C 
BRANCH  37  38
ATOM     38  O   UNL     1     -16.626  -1.530  -1.188  1.00  0.00    -0.394 OA
ATOM     39  H   UNL     1     -15.925  -1.096  -0.651  1.00  0.00    +0.210 HD
ENDBRANCH  37  38
ENDBRANCH  30  37
BRANCH  31  40
ATOM     40  O   UNL     1     -14.536   0.926  -3.535  1.00  0.00    -0.388 OA
ATOM     41  H   UNL     1     -15.274   0.839  -4.168  1.00  0.00    +0.211 HD
ENDBRANCH  31  40
ENDBRANCH  25  26
ENDBRANCH   2  25
BRANCH   3  42
ATOM     42  O   UNL     1     -10.940  -5.601  -2.733  1.00  0.00    -0.343 OA
BRANCH  42  43
ATOM     43  C   UNL     1     -10.216  -5.399  -1.514  1.00  0.00    +0.270 C 
ATOM     44  C   UNL     1      -9.151  -4.305  -1.790  1.00  0.00    +0.139 C 
ATOM     45  O   UNL     1      -9.625  -6.644  -1.131  1.00  0.00    -0.342 OA
ATOM     46  C   UNL     1      -8.155  -4.200  -0.626  1.00  0.00    +0.167 C 
ATOM     47  C   UNL     1      -8.738  -6.575  -0.009  1.00  0.00    +0.178 C 
ATOM     48  C   UNL     1      -7.595  -5.581  -0.279  1.00  0.00    +0.176 C 
BRANCH  44  49
ATOM     49  N   UNL     1      -9.774  -2.982  -2.041  1.00  0.00    -0.321 NA
ATOM     50  H   UNL     1      -9.629  -2.743  -3.023  1.00  0.00    +0.119 HD
ATOM     51  H   UNL     1      -9.250  -2.295  -1.490  1.00  0.00    +0.119 HD
ENDBRANCH  44  49
BRANCH  46  52
ATOM     52  O   UNL     1      -7.069  -3.330  -0.993  1.00  0.00    -0.388 OA
ATOM     53  H   UNL     1      -6.412  -3.427  -0.273  1.00  0.00    +0.211 HD
ENDBRANCH  46  52
BRANCH  47  54
ATOM     54  C   UNL     1      -9.503  -6.341   1.307  1.00  0.00    +0.191 C 
BRANCH  54  55
ATOM     55  O   UNL     1      -8.654  -6.571   2.428  1.00  0.00    -0.394 OA
ATOM     56  H   UNL     1      -8.475  -7.531   2.458  1.00  0.00    +0.210 HD
ENDBRANCH  54  55
ENDBRANCH  47  54
BRANCH  48  57
ATOM     57  O   UNL     1      -6.665  -5.446   0.802  1.00  0.00    -0.388 OA
ATOM     58  H   UNL     1      -6.060  -4.701   0.584  1.00  0.00    +0.211 HD
ENDBRANCH  48  57
ENDBRANCH  42  43
ENDBRANCH   3  42
BRANCH   5  59
ATOM     59  O   UNL     1     -14.022  -9.124  -4.199  1.00  0.00    -0.320 OA
BRANCH  59  60
ATOM     60  C   UNL     1     -14.304 -10.360  -3.542  1.00  0.00    +0.273 C 
ATOM     61  C   UNL     1     -13.158 -10.769  -2.571  1.00  0.00    +0.140 C 
ATOM     62  O   UNL     1     -15.522 -10.131  -2.817  1.00  0.00    -0.342 OA
ATOM     63  C   UNL     1     -13.608 -11.983  -1.731  1.00  0.00    +0.174 C 
ATOM     64  C   UNL     1     -15.980 -11.292  -2.105  1.00  0.00    +0.178 C 
ATOM     65  C   UNL     1     -14.955 -11.715  -1.052  1.00  0.00    +0.176 C 
BRANCH  61  66
ATOM     66  N   UNL     1     -11.894 -11.100  -3.257  1.00  0.00    -0.321 NA
ATOM     67  H   UNL     1     -11.906 -10.673  -4.193  1.00  0.00    +0.119 HD
ATOM     68  H   UNL     1     -11.871 -12.117  -3.426  1.00  0.00    +0.119 HD
ENDBRANCH  61  66
BRANCH  63  69
ATOM     69  O   UNL     1     -12.654 -12.249  -0.682  1.00  0.00    -0.343 OA
BRANCH  69  70
ATOM     70  C   UNL     1     -12.509 -11.147   0.218  1.00  0.00    +0.270 C 
ATOM     71  C   UNL     1     -12.445 -11.683   1.679  1.00  0.00    +0.139 C 
ATOM     72  O   UNL     1     -11.351 -10.394  -0.175  1.00  0.00    -0.342 OA
ATOM     73  C   UNL     1     -11.610 -10.697   2.502  1.00  0.00    +0.167 C 
ATOM     74  C   UNL     1     -10.138 -10.874   0.427  1.00  0.00    +0.178 C 
ATOM     75  C   UNL     1     -10.172 -10.637   1.957  1.00  0.00    +0.176 C 
BRANCH  71  76
ATOM     76  N   UNL     1     -13.782 -11.912   2.285  1.00  0.00    -0.321 NA
ATOM     77  H   UNL     1     -13.819 -11.312   3.116  1.00  0.00    +0.119 HD
ATOM     78  H   UNL     1     -14.491 -11.499   1.658  1.00  0.00    +0.119 HD
ENDBRANCH  71  76
BRANCH  73  79
ATOM     79  O   UNL     1     -11.578 -11.085   3.886  1.00  0.00    -0.388 OA
ATOM     80  H   UNL     1     -10.729 -10.740   4.224  1.00  0.00    +0.211 HD
ENDBRANCH  73  79
BRANCH  74  81
ATOM     81  C   UNL     1      -8.952 -10.212  -0.288  1.00  0.00    +0.191 C 
BRANCH  81  82
ATOM     82  O   UNL     1      -9.331  -9.747  -1.587  1.00  0.00    -0.394 OA
ATOM     83  H   UNL     1      -9.027 -10.417  -2.225  1.00  0.00    +0.210 HD
ENDBRANCH  81  82
ENDBRANCH  74  81
BRANCH  75  84
ATOM     84  O   UNL     1      -9.617  -9.389   2.395  1.00  0.00    -0.388 OA
ATOM     85  H   UNL     1      -8.693  -9.351   2.062  1.00  0.00    +0.211 HD
ENDBRANCH  75  84
ENDBRANCH  69  70
ENDBRANCH  63  69
BRANCH  64  86
ATOM     86  C   UNL     1     -17.324 -10.931  -1.467  1.00  0.00    +0.191 C 
BRANCH  86  87
ATOM     87  O   UNL     1     -17.121 -10.604  -0.088  1.00  0.00    -0.394 OA
ATOM     88  H   UNL     1     -16.846 -11.445   0.328  1.00  0.00    +0.210 HD
ENDBRANCH  86  87
ENDBRANCH  64  86
BRANCH  65  89
ATOM     89  O   UNL     1     -15.389 -12.900  -0.373  1.00  0.00    -0.388 OA
ATOM     90  H   UNL     1     -14.574 -13.405  -0.176  1.00  0.00    +0.211 HD
ENDBRANCH  65  89
ENDBRANCH  59  60
ENDBRANCH   5  59
BRANCH   4  91
ATOM     91  N   UNL     1     -12.121  -7.104  -4.910  1.00  0.00    -0.321 NA
ATOM     92  H   UNL     1     -11.148  -6.792  -4.954  1.00  0.00    +0.119 HD
ATOM     93  H   UNL     1     -12.711  -6.305  -5.156  1.00  0.00    +0.119 HD
ENDBRANCH   4  91
TORSDOF 36
ENDMDL
MODEL 4
REMARK VINA RESULT:    -6.417      4.307      9.593
REMARK INTER + INTRA:         -23.841
REMARK INTER:                 -17.811
REMARK INTRA:                  -6.030
REMARK UNBOUND:                -7.669
REMARK SMILES N[C@@H]1[C@@H](O[C@@H]2[C@H](N)[C@H](O[C@@H]3O[C@H](CO)[C@@H](O)[C@H](O[C@@H]4O[C@@H](CO)[C@@H](O)[C@H](O)[C@H]4N)[C@H]3N)O[C@@H](CO[C@H]3O[C@@H](CO)[C@@H](O)[C@H](O)[C@H]3N)[C@H]2O[C@H]2O[C@@H](CO)[C@@H](O)[C@@H](O)[C@H]2N)O[C@H](CO)[C@H](O)[C@H]1O
REMARK SMILES IDX 33 1 47 2 5 3 6 4 8 5 32 6 34 7 35 8 36 9 38 10 41 11 37 12
REMARK SMILES IDX 43 13 45 14 39 15 40 16 42 18 44 20 46 22 48 25 49 26 58 27
REMARK SMILES IDX 50 28 56 29 51 30 54 31 59 32 57 35 52 37 53 38 55 40 4 42
REMARK SMILES IDX 3 43 2 44 60 45 66 46 61 47 64 48 1 49 67 52 62 54 63 55
REMARK SMILES IDX 65 57 9 59 10 60 30 61 11 62 17 63 12 64 15 65 31 66 18 69
REMARK SMILES IDX 19 70 28 71 20 72 26 73 21 74 24 75 29 76 27 79 22 81 23 82
REMARK SMILES IDX 25 84 13 86 14 87 16 89 7 91
REMARK H PARENT 40 17 42 19 44 21 46 23 46 24 59 33 59 34 57 36 53 39 55 41
REMARK H PARENT 1 50 1 51 67 53 63 56 65 58 31 67 31 68 29 77 29 78 27 80
REMARK H PARENT 23 83 25 85 14 88 16 90 7 92 7 93
ROOT
ATOM      1  C   UNL     1      -9.966  -9.049   0.754  1.00  0.00    +0.179 C 
ATOM      2  C   UNL     1     -10.786 -10.347   0.603  1.00  0.00    +0.183 C 
ATOM      3  C   UNL     1     -10.092 -11.533   1.304  1.00  0.00    +0.175 C 
ATOM      4  C   UNL     1      -9.754 -11.156   2.763  1.00  0.00    +0.140 C 
ATOM      5  C   UNL     1      -8.909  -9.851   2.762  1.00  0.00    +0.273 C 
ATOM      6  O   UNL     1      -9.624  -8.797   2.129  1.00  0.00    -0.342 OA
ENDROOT
BRANCH   1   7
ATOM      7  C   UNL     1      -8.725  -9.004  -0.171  1.00  0.00    +0.198 C 
BRANCH   7   8
ATOM      8  O   UNL     1      -7.878  -7.899   0.159  1.00  0.00    -0.348 OA
BRANCH   8   9
ATOM      9  C   UNL     1      -8.203  -6.712  -0.581  1.00  0.00    +0.270 C 
ATOM     10  C   UNL     1     -10.006  -5.586  -1.731  1.00  0.00    +0.178 C 
ATOM     11  C   UNL     1      -8.961  -4.461  -1.806  1.00  0.00    +0.176 C 
ATOM     12  O   UNL     1      -9.552  -6.758  -1.041  1.00  0.00    -0.342 OA
ATOM     13  C   UNL     1      -8.315  -4.177  -0.442  1.00  0.00    +0.167 C 
ATOM     14  C   UNL     1      -7.966  -5.470   0.330  1.00  0.00    +0.139 C 
BRANCH  10  15
ATOM     15  C   UNL     1     -11.355  -5.167  -1.123  1.00  0.00    +0.191 C 
BRANCH  15  16
ATOM     16  O   UNL     1     -11.460  -5.552   0.245  1.00  0.00    -0.394 OA
ATOM     17  H   UNL     1     -12.169  -5.012   0.640  1.00  0.00    +0.210 HD
ENDBRANCH  15  16
ENDBRANCH  10  15
BRANCH  11  18
ATOM     18  O   UNL     1      -9.477  -3.247  -2.366  1.00  0.00    -0.388 OA
ATOM     19  H   UNL     1      -9.084  -2.507  -1.867  1.00  0.00    +0.211 HD
ENDBRANCH  11  18
BRANCH  13  20
ATOM     20  O   UNL     1      -7.117  -3.409  -0.675  1.00  0.00    -0.388 OA
ATOM     21  H   UNL     1      -6.396  -4.067  -0.692  1.00  0.00    +0.211 HD
ENDBRANCH  13  20
BRANCH  14  22
ATOM     22  N   UNL     1      -8.778  -5.556   1.582  1.00  0.00    -0.321 NA
ATOM     23  H   UNL     1      -8.826  -6.562   1.811  1.00  0.00    +0.119 HD
ATOM     24  H   UNL     1      -8.182  -5.180   2.341  1.00  0.00    +0.119 HD
ENDBRANCH  14  22
ENDBRANCH   8   9
ENDBRANCH   7   8
ENDBRANCH   1   7
BRANCH   2  25
ATOM     25  O   UNL     1     -10.947 -10.665  -0.792  1.00  0.00    -0.342 OA
BRANCH  25  26
ATOM     26  C   UNL     1     -12.100 -10.034  -1.364  1.00  0.00    +0.270 C 
ATOM     27  C   UNL     1     -12.934 -11.128  -2.102  1.00  0.00    +0.139 C 
ATOM     28  O   UNL     1     -11.708  -9.006  -2.270  1.00  0.00    -0.342 OA
ATOM     29  C   UNL     1     -14.173 -10.490  -2.792  1.00  0.00    +0.167 C 
ATOM     30  C   UNL     1     -12.783  -8.373  -2.978  1.00  0.00    +0.178 C 
ATOM     31  C   UNL     1     -14.174  -8.962  -2.667  1.00  0.00    +0.176 C 
BRANCH  27  32
ATOM     32  N   UNL     1     -12.090 -11.936  -3.021  1.00  0.00    -0.321 NA
ATOM     33  H   UNL     1     -11.254 -12.219  -2.496  1.00  0.00    +0.119 HD
ATOM     34  H   UNL     1     -12.588 -12.814  -3.182  1.00  0.00    +0.119 HD
ENDBRANCH  27  32
BRANCH  29  35
ATOM     35  O   UNL     1     -14.281 -10.820  -4.192  1.00  0.00    -0.388 OA
ATOM     36  H   UNL     1     -15.235 -10.718  -4.396  1.00  0.00    +0.211 HD
ENDBRANCH  29  35
BRANCH  30  37
ATOM     37  C   UNL     1     -12.414  -8.316  -4.475  1.00  0.00    +0.191 C 
BRANCH  37  38
ATOM     38  O   UNL     1     -11.655  -9.435  -4.928  1.00  0.00    -0.394 OA
ATOM     39  H   UNL     1     -12.283 -10.183  -5.051  1.00  0.00    +0.210 HD
ENDBRANCH  37  38
ENDBRANCH  30  37
BRANCH  31  40
ATOM     40  O   UNL     1     -15.205  -8.418  -3.498  1.00  0.00    -0.388 OA
ATOM     41  H   UNL     1     -14.796  -7.754  -4.085  1.00  0.00    +0.211 HD
ENDBRANCH  31  40
ENDBRANCH  25  26
ENDBRANCH   2  25
BRANCH   3  42
ATOM     42  O   UNL     1     -10.959 -12.682   1.194  1.00  0.00    -0.343 OA
BRANCH  42  43
ATOM     43  C   UNL     1     -10.300 -13.883   0.775  1.00  0.00    +0.270 C 
ATOM     44  C   UNL     1      -9.594 -14.477   2.023  1.00  0.00    +0.139 C 
ATOM     45  O   UNL     1      -9.373 -13.547  -0.262  1.00  0.00    -0.342 OA
ATOM     46  C   UNL     1      -8.648 -15.620   1.627  1.00  0.00    +0.167 C 
ATOM     47  C   UNL     1      -8.522 -14.618  -0.685  1.00  0.00    +0.178 C 
ATOM     48  C   UNL     1      -7.713 -15.171   0.502  1.00  0.00    +0.176 C 
BRANCH  44  49
ATOM     49  N   UNL     1     -10.572 -14.958   3.030  1.00  0.00    -0.321 NA
ATOM     50  H   UNL     1     -10.058 -15.220   3.871  1.00  0.00    +0.119 HD
ATOM     51  H   UNL     1     -10.988 -15.817   2.658  1.00  0.00    +0.119 HD
ENDBRANCH  44  49
BRANCH  46  52
ATOM     52  O   UNL     1      -7.860 -16.014   2.766  1.00  0.00    -0.388 OA
ATOM     53  H   UNL     1      -7.439 -15.188   3.080  1.00  0.00    +0.211 HD
ENDBRANCH  46  52
BRANCH  47  54
ATOM     54  C   UNL     1      -9.297 -15.677  -1.490  1.00  0.00    +0.191 C 
BRANCH  54  55
ATOM     55  O   UNL     1      -8.427 -16.361  -2.387  1.00  0.00    -0.394 OA
ATOM     56  H   UNL     1      -8.066 -15.691  -3.000  1.00  0.00    +0.210 HD
ENDBRANCH  54  55
ENDBRANCH  47  54
BRANCH  48  57
ATOM     57  O   UNL     1      -6.839 -16.255   0.165  1.00  0.00    -0.388 OA
ATOM     58  H   UNL     1      -5.978 -16.096   0.614  1.00  0.00    +0.211 HD
ENDBRANCH  48  57
ENDBRANCH  42  43
ENDBRANCH   3  42
BRANCH   5  59
ATOM     59  O   UNL     1      -8.627  -9.513   4.122  1.00  0.00    -0.320 OA
BRANCH  59  60
ATOM     60  C   UNL     1      -7.234  -9.388   4.415  1.00  0.00    +0.273 C 
ATOM     61  C   UNL     1      -6.799 -10.351   5.559  1.00  0.00    +0.140 C 
ATOM     62  O   UNL     1      -6.561  -9.723   3.192  1.00  0.00    -0.342 OA
ATOM     63  C   UNL     1      -5.261 -10.337   5.683  1.00  0.00    +0.174 C 
ATOM     64  C   UNL     1      -5.131  -9.625   3.291  1.00  0.00    +0.178 C 
ATOM     65  C   UNL     1      -4.597 -10.611   4.329  1.00  0.00    +0.176 C 
BRANCH  61  66
ATOM     66  N   UNL     1      -7.391 -10.015   6.869  1.00  0.00    -0.321 NA
ATOM     67  H   UNL     1      -8.341 -10.408   6.911  1.00  0.00    +0.119 HD
ATOM     68  H   UNL     1      -7.519  -8.993   6.916  1.00  0.00    +0.119 HD
ENDBRANCH  61  66
BRANCH  63  69
ATOM     69  O   UNL     1      -4.820 -11.372   6.585  1.00  0.00    -0.343 OA
BRANCH  69  70
ATOM     70  C   UNL     1      -4.176 -10.846   7.748  1.00  0.00    +0.270 C 
ATOM     71  C   UNL     1      -4.539 -11.730   8.978  1.00  0.00    +0.139 C 
ATOM     72  O   UNL     1      -2.767 -10.766   7.487  1.00  0.00    -0.342 OA
ATOM     73  C   UNL     1      -3.376 -11.647   9.973  1.00  0.00    +0.167 C 
ATOM     74  C   UNL     1      -2.066 -11.978   7.810  1.00  0.00    +0.178 C 
ATOM     75  C   UNL     1      -2.096 -12.220   9.340  1.00  0.00    +0.176 C 
BRANCH  71  76
ATOM     76  N   UNL     1      -5.832 -11.362   9.611  1.00  0.00    -0.321 NA
ATOM     77  H   UNL     1      -6.276 -10.693   8.972  1.00  0.00    +0.119 HD
ATOM     78  H   UNL     1      -6.454 -12.185   9.568  1.00  0.00    +0.119 HD
ENDBRANCH  71  76
BRANCH  73  79
ATOM     79  O   UNL     1      -3.679 -12.374  11.175  1.00  0.00    -0.388 OA
ATOM     80  H   UNL     1      -3.475 -13.306  10.963  1.00  0.00    +0.211 HD
ENDBRANCH  73  79
BRANCH  74  81
ATOM     81  C   UNL     1      -0.655 -11.891   7.213  1.00  0.00    +0.191 C 
BRANCH  81  82
ATOM     82  O   UNL     1      -0.088 -10.594   7.422  1.00  0.00    -0.394 OA
ATOM     83  H   UNL     1       0.838 -10.641   7.125  1.00  0.00    +0.210 HD
ENDBRANCH  81  82
ENDBRANCH  74  81
BRANCH  75  84
ATOM     84  O   UNL     1      -0.992 -11.666  10.069  1.00  0.00    -0.388 OA
ATOM     85  H   UNL     1      -1.314 -11.477  10.979  1.00  0.00    +0.211 HD
ENDBRANCH  75  84
ENDBRANCH  69  70
ENDBRANCH  63  69
BRANCH  64  86
ATOM     86  C   UNL     1      -4.561  -9.911   1.899  1.00  0.00    +0.191 C 
BRANCH  86  87
ATOM     87  O   UNL     1      -5.167  -9.028   0.948  1.00  0.00    -0.394 OA
ATOM     88  H   UNL     1      -5.941  -9.521   0.611  1.00  0.00    +0.210 HD
ENDBRANCH  86  87
ENDBRANCH  64  86
BRANCH  65  89
ATOM     89  O   UNL     1      -3.176 -10.482   4.462  1.00  0.00    -0.388 OA
ATOM     90  H   UNL     1      -3.024 -10.165   5.376  1.00  0.00    +0.211 HD
ENDBRANCH  65  89
ENDBRANCH  59  60
ENDBRANCH   5  59
BRANCH   4  91
ATOM     91  N   UNL     1     -10.987 -11.040   3.581  1.00  0.00    -0.321 NA
ATOM     92  H   UNL     1     -11.233 -10.049   3.633  1.00  0.00    +0.119 HD
ATOM     93  H   UNL     1     -10.761 -11.350   4.530  1.00  0.00    +0.119 HD
ENDBRANCH   4  91
TORSDOF 36
ENDMDL
MODEL 5
REMARK VINA RESULT:    -6.360      4.393      9.842
REMARK INTER + INTRA:         -23.696
REMARK INTER:                 -18.783
REMARK INTRA:                  -4.913
REMARK UNBOUND:                -7.669
REMARK SMILES N[C@@H]1[C@@H](O[C@@H]2[C@H](N)[C@H](O[C@@H]3O[C@H](CO)[C@@H](O)[C@H](O[C@@H]4O[C@@H](CO)[C@@H](O)[C@H](O)[C@H]4N)[C@H]3N)O[C@@H](CO[C@H]3O[C@@H](CO)[C@@H](O)[C@H](O)[C@H]3N)[C@H]2O[C@H]2O[C@@H](CO)[C@@H](O)[C@@H](O)[C@H]2N)O[C@H](CO)[C@H](O)[C@H]1O
REMARK SMILES IDX 33 1 47 2 5 3 6 4 8 5 32 6 34 7 35 8 36 9 38 10 41 11 37 12
REMARK SMILES IDX 43 13 45 14 39 15 40 16 42 18 44 20 46 22 48 25 49 26 58 27
REMARK SMILES IDX 50 28 56 29 51 30 54 31 59 32 57 35 52 37 53 38 55 40 4 42
REMARK SMILES IDX 3 43 2 44 60 45 66 46 61 47 64 48 1 49 67 52 62 54 63 55
REMARK SMILES IDX 65 57 9 59 10 60 30 61 11 62 17 63 12 64 15 65 31 66 18 69
REMARK SMILES IDX 19 70 28 71 20 72 26 73 21 74 24 75 29 76 27 79 22 81 23 82
REMARK SMILES IDX 25 84 13 86 14 87 16 89 7 91
REMARK H PARENT 40 17 42 19 44 21 46 23 46 24 59 33 59 34 57 36 53 39 55 41
REMARK H PARENT 1 50 1 51 67 53 63 56 65 58 31 67 31 68 29 77 29 78 27 80
REMARK H PARENT 23 83 25 85 14 88 16 90 7 92 7 93
ROOT
ATOM      1  C   UNL     1      -9.229  -7.656   0.872  1.00  0.00    +0.179 C 
ATOM      2  C   UNL     1      -9.919  -8.902   0.280  1.00  0.00    +0.183 C 
ATOM      3  C   UNL     1      -9.152 -10.191   0.639  1.00  0.00    +0.175 C 
ATOM      4  C   UNL     1      -8.913 -10.255   2.163  1.00  0.00    +0.140 C 
ATOM      5  C   UNL     1      -8.192  -8.953   2.614  1.00  0.00    +0.273 C 
ATOM      6  O   UNL     1      -8.972  -7.812   2.280  1.00  0.00    -0.342 OA
ENDROOT
BRANCH   1   7
ATOM      7  C   UNL     1      -7.958  -7.239   0.092  1.00  0.00    +0.198 C 
BRANCH   7   8
ATOM      8  O   UNL     1      -7.537  -5.922   0.461  1.00  0.00    -0.348 OA
BRANCH   8   9
ATOM      9  C   UNL     1      -8.393  -4.899  -0.070  1.00  0.00    +0.270 C 
ATOM     10  C   UNL     1      -8.505  -2.533  -0.552  1.00  0.00    +0.178 C 
ATOM     11  C   UNL     1      -9.830  -2.955  -1.209  1.00  0.00    +0.176 C 
ATOM     12  O   UNL     1      -7.766  -3.622   0.019  1.00  0.00    -0.342 OA
ATOM     13  C   UNL     1      -9.655  -4.158  -2.148  1.00  0.00    +0.167 C 
ATOM     14  C   UNL     1      -8.738  -5.249  -1.549  1.00  0.00    +0.139 C 
BRANCH  10  15
ATOM     15  C   UNL     1      -7.558  -1.744  -1.471  1.00  0.00    +0.191 C 
BRANCH  15  16
ATOM     16  O   UNL     1      -6.318  -2.421  -1.659  1.00  0.00    -0.394 OA
ATOM     17  H   UNL     1      -6.111  -2.875  -0.823  1.00  0.00    +0.210 HD
ENDBRANCH  15  16
ENDBRANCH  10  15
BRANCH  11  18
ATOM     18  O   UNL     1     -10.482  -1.884  -1.903  1.00  0.00    -0.388 OA
ATOM     19  H   UNL     1     -10.241  -1.055  -1.449  1.00  0.00    +0.211 HD
ENDBRANCH  11  18
BRANCH  13  20
ATOM     20  O   UNL     1     -10.963  -4.707  -2.406  1.00  0.00    -0.388 OA
ATOM     21  H   UNL     1     -10.882  -5.657  -2.198  1.00  0.00    +0.211 HD
ENDBRANCH  13  20
BRANCH  14  22
ATOM     22  N   UNL     1      -7.500  -5.389  -2.374  1.00  0.00    -0.321 NA
ATOM     23  H   UNL     1      -7.326  -6.406  -2.440  1.00  0.00    +0.119 HD
ATOM     24  H   UNL     1      -7.767  -5.143  -3.344  1.00  0.00    +0.119 HD
ENDBRANCH  14  22
ENDBRANCH   8   9
ENDBRANCH   7   8
ENDBRANCH   1   7
BRANCH   2  25
ATOM     25  O   UNL     1      -9.990  -8.789  -1.153  1.00  0.00    -0.342 OA
BRANCH  25  26
ATOM     26  C   UNL     1     -11.295  -8.410  -1.606  1.00  0.00    +0.270 C 
ATOM     27  C   UNL     1     -12.185  -9.692  -1.648  1.00  0.00    +0.139 C 
ATOM     28  O   UNL     1     -11.220  -7.807  -2.895  1.00  0.00    -0.342 OA
ATOM     29  C   UNL     1     -13.602  -9.350  -2.188  1.00  0.00    +0.167 C 
ATOM     30  C   UNL     1     -12.483  -7.479  -3.491  1.00  0.00    +0.178 C 
ATOM     31  C   UNL     1     -13.705  -7.889  -2.642  1.00  0.00    +0.176 C 
BRANCH  27  32
ATOM     32  N   UNL     1     -11.517 -10.799  -2.384  1.00  0.00    -0.321 NA
ATOM     33  H   UNL     1     -11.171 -10.410  -3.268  1.00  0.00    +0.119 HD
ATOM     34  H   UNL     1     -10.666 -11.025  -1.864  1.00  0.00    +0.119 HD
ENDBRANCH  27  32
BRANCH  29  35
ATOM     35  O   UNL     1     -14.012 -10.186  -3.289  1.00  0.00    -0.388 OA
ATOM     36  H   UNL     1     -14.548 -10.895  -2.874  1.00  0.00    +0.211 HD
ENDBRANCH  29  35
BRANCH  30  37
ATOM     37  C   UNL     1     -12.489  -8.000  -4.943  1.00  0.00    +0.191 C 
BRANCH  37  38
ATOM     38  O   UNL     1     -11.734  -9.194  -5.133  1.00  0.00    -0.394 OA
ATOM     39  H   UNL     1     -10.820  -8.924  -5.380  1.00  0.00    +0.210 HD
ENDBRANCH  37  38
ENDBRANCH  30  37
BRANCH  31  40
ATOM     40  O   UNL     1     -14.947  -7.690  -3.325  1.00  0.00    -0.388 OA
ATOM     41  H   UNL     1     -15.374  -8.561  -3.426  1.00  0.00    +0.211 HD
ENDBRANCH  31  40
ENDBRANCH  25  26
ENDBRANCH   2  25
BRANCH   3  42
ATOM     42  O   UNL     1      -9.904 -11.313   0.128  1.00  0.00    -0.343 OA
BRANCH  42  43
ATOM     43  C   UNL     1      -9.266 -12.583   0.303  1.00  0.00    +0.270 C 
ATOM     44  C   UNL     1     -10.265 -13.667  -0.181  1.00  0.00    +0.139 C 
ATOM     45  O   UNL     1      -8.935 -12.732   1.687  1.00  0.00    -0.342 OA
ATOM     46  C   UNL     1      -9.781 -15.072   0.205  1.00  0.00    +0.167 C 
ATOM     47  C   UNL     1      -8.427 -14.018   2.054  1.00  0.00    +0.178 C 
ATOM     48  C   UNL     1      -9.434 -15.125   1.695  1.00  0.00    +0.176 C 
BRANCH  44  49
ATOM     49  N   UNL     1     -10.487 -13.595  -1.646  1.00  0.00    -0.321 NA
ATOM     50  H   UNL     1      -9.911 -14.311  -2.090  1.00  0.00    +0.119 HD
ATOM     51  H   UNL     1     -10.125 -12.689  -1.960  1.00  0.00    +0.119 HD
ENDBRANCH  44  49
BRANCH  46  52
ATOM     52  O   UNL     1     -10.814 -16.035  -0.073  1.00  0.00    -0.388 OA
ATOM     53  H   UNL     1     -10.340 -16.878  -0.223  1.00  0.00    +0.211 HD
ENDBRANCH  46  52
BRANCH  47  54
ATOM     54  C   UNL     1      -7.001 -14.241   1.516  1.00  0.00    +0.191 C 
BRANCH  54  55
ATOM     55  O   UNL     1      -6.166 -13.133   1.835  1.00  0.00    -0.394 OA
ATOM     56  H   UNL     1      -5.244 -13.414   1.673  1.00  0.00    +0.210 HD
ENDBRANCH  54  55
ENDBRANCH  47  54
BRANCH  48  57
ATOM     57  O   UNL     1      -8.996 -16.449   2.022  1.00  0.00    -0.388 OA
ATOM     58  H   UNL     1      -8.285 -16.694   1.388  1.00  0.00    +0.211 HD
ENDBRANCH  48  57
ENDBRANCH  42  43
ENDBRANCH   3  42
BRANCH   5  59
ATOM     59  O   UNL     1      -8.001  -9.028   4.029  1.00  0.00    -0.320 OA
BRANCH  59  60
ATOM     60  C   UNL     1      -6.635  -9.148   4.428  1.00  0.00    +0.273 C 
ATOM     61  C   UNL     1      -6.461 -10.187   5.574  1.00  0.00    +0.140 C 
ATOM     62  O   UNL     1      -5.936  -9.576   3.249  1.00  0.00    -0.342 OA
ATOM     63  C   UNL     1      -4.957 -10.439   5.813  1.00  0.00    +0.174 C 
ATOM     64  C   UNL     1      -4.522  -9.727   3.457  1.00  0.00    +0.178 C 
ATOM     65  C   UNL     1      -4.246 -10.805   4.505  1.00  0.00    +0.176 C 
BRANCH  61  66
ATOM     66  N   UNL     1      -7.087  -9.772   6.845  1.00  0.00    -0.321 NA
ATOM     67  H   UNL     1      -7.414 -10.612   7.341  1.00  0.00    +0.119 HD
ATOM     68  H   UNL     1      -7.941  -9.236   6.629  1.00  0.00    +0.119 HD
ENDBRANCH  61  66
BRANCH  63  69
ATOM     69  O   UNL     1      -4.770 -11.547   6.717  1.00  0.00    -0.343 OA
BRANCH  69  70
ATOM     70  C   UNL     1      -4.196 -11.145   7.964  1.00  0.00    +0.270 C 
ATOM     71  C   UNL     1      -4.507 -12.224   9.043  1.00  0.00    +0.139 C 
ATOM     72  O   UNL     1      -2.794 -10.914   7.761  1.00  0.00    -0.342 OA
ATOM     73  C   UNL     1      -3.376 -12.192  10.075  1.00  0.00    +0.167 C 
ATOM     74  C   UNL     1      -2.000 -12.100   7.930  1.00  0.00    +0.178 C 
ATOM     75  C   UNL     1      -2.040 -12.563   9.408  1.00  0.00    +0.176 C 
BRANCH  71  76
ATOM     76  N   UNL     1      -5.840 -12.057   9.680  1.00  0.00    -0.321 NA
ATOM     77  H   UNL     1      -6.108 -11.080   9.515  1.00  0.00    +0.119 HD
ATOM     78  H   UNL     1      -6.527 -12.592   9.127  1.00  0.00    +0.119 HD
ENDBRANCH  71  76
BRANCH  73  79
ATOM     79  O   UNL     1      -3.640 -13.108  11.151  1.00  0.00    -0.388 OA
ATOM     80  H   UNL     1      -4.117 -12.580  11.820  1.00  0.00    +0.211 HD
ENDBRANCH  73  79
BRANCH  74  81
ATOM     81  C   UNL     1      -0.589 -11.814   7.397  1.00  0.00    +0.191 C 
BRANCH  81  82
ATOM     82  O   UNL     1      -0.151 -10.507   7.780  1.00  0.00    -0.394 OA
ATOM     83  H   UNL     1      -0.927  -9.922   7.719  1.00  0.00    +0.210 HD
ENDBRANCH  81  82
ENDBRANCH  74  81
BRANCH  75  84
ATOM     84  O   UNL     1      -1.001 -12.033  10.243  1.00  0.00    -0.388 OA
ATOM     85  H   UNL     1      -0.511 -12.801  10.614  1.00  0.00    +0.211 HD
ENDBRANCH  75  84
ENDBRANCH  69  70
ENDBRANCH  63  69
BRANCH  64  86
ATOM     86  C   UNL     1      -3.902 -10.088   2.104  1.00  0.00    +0.191 C 
BRANCH  86  87
ATOM     87  O   UNL     1      -4.935 -10.513   1.208  1.00  0.00    -0.394 OA
ATOM     88  H   UNL     1      -4.503 -10.545   0.331  1.00  0.00    +0.210 HD
ENDBRANCH  86  87
ENDBRANCH  64  86
BRANCH  65  89
ATOM     89  O   UNL     1      -2.839 -10.924   4.748  1.00  0.00    -0.388 OA
ATOM     90  H   UNL     1      -2.607 -11.845   4.508  1.00  0.00    +0.211 HD
ENDBRANCH  65  89
ENDBRANCH  59  60
ENDBRANCH   5  59
BRANCH   4  91
ATOM     91  N   UNL     1     -10.186 -10.486   2.891  1.00  0.00    -0.321 NA
ATOM     92  H   UNL     1     -10.179  -9.894   3.725  1.00  0.00    +0.119 HD
ATOM     93  H   UNL     1     -10.193 -11.459   3.204  1.00  0.00    +0.119 HD
ENDBRANCH   4  91
TORSDOF 36
ENDMDL
MODEL 6
REMARK VINA RESULT:    -6.302      5.896     10.063
REMARK INTER + INTRA:         -23.551
REMARK INTER:                 -16.520
REMARK INTRA:                  -7.031
REMARK UNBOUND:                -7.669
REMARK SMILES N[C@@H]1[C@@H](O[C@@H]2[C@H](N)[C@H](O[C@@H]3O[C@H](CO)[C@@H](O)[C@H](O[C@@H]4O[C@@H](CO)[C@@H](O)[C@H](O)[C@H]4N)[C@H]3N)O[C@@H](CO[C@H]3O[C@@H](CO)[C@@H](O)[C@H](O)[C@H]3N)[C@H]2O[C@H]2O[C@@H](CO)[C@@H](O)[C@@H](O)[C@H]2N)O[C@H](CO)[C@H](O)[C@H]1O
REMARK SMILES IDX 33 1 47 2 5 3 6 4 8 5 32 6 34 7 35 8 36 9 38 10 41 11 37 12
REMARK SMILES IDX 43 13 45 14 39 15 40 16 42 18 44 20 46 22 48 25 49 26 58 27
REMARK SMILES IDX 50 28 56 29 51 30 54 31 59 32 57 35 52 37 53 38 55 40 4 42
REMARK SMILES IDX 3 43 2 44 60 45 66 46 61 47 64 48 1 49 67 52 62 54 63 55
REMARK SMILES IDX 65 57 9 59 10 60 30 61 11 62 17 63 12 64 15 65 31 66 18 69
REMARK SMILES IDX 19 70 28 71 20 72 26 73 21 74 24 75 29 76 27 79 22 81 23 82
REMARK SMILES IDX 25 84 13 86 14 87 16 89 7 91
REMARK H PARENT 40 17 42 19 44 21 46 23 46 24 59 33 59 34 57 36 53 39 55 41
REMARK H PARENT 1 50 1 51 67 53 63 56 65 58 31 67 31 68 29 77 29 78 27 80
REMARK H PARENT 23 83 25 85 14 88 16 90 7 92 7 93
ROOT
ATOM      1  C   UNL     1      -5.490  -9.818   5.404  1.00  0.00    +0.179 C 
ATOM      2  C   UNL     1      -4.292 -10.788   5.349  1.00  0.00    +0.183 C 
ATOM      3  C   UNL     1      -4.323 -11.644   4.066  1.00  0.00    +0.175 C 
ATOM      4  C   UNL     1      -4.467 -10.733   2.828  1.00  0.00    +0.140 C 
ATOM      5  C   UNL     1      -5.722  -9.833   3.008  1.00  0.00    +0.273 C 
ATOM      6  O   UNL     1      -5.607  -9.052   4.191  1.00  0.00    -0.342 OA
ENDROOT
BRANCH   1   7
ATOM      7  C   UNL     1      -6.819 -10.518   5.780  1.00  0.00    +0.198 C 
BRANCH   7   8
ATOM      8  O   UNL     1      -7.335 -10.012   7.015  1.00  0.00    -0.348 OA
BRANCH   8   9
ATOM      9  C   UNL     1      -7.988 -11.022   7.798  1.00  0.00    +0.270 C 
ATOM     10  C   UNL     1      -8.057 -13.403   8.210  1.00  0.00    +0.178 C 
ATOM     11  C   UNL     1      -9.006 -12.957   9.335  1.00  0.00    +0.176 C 
ATOM     12  O   UNL     1      -7.523 -12.320   7.436  1.00  0.00    -0.342 OA
ATOM     13  C   UNL     1      -8.415 -11.815  10.175  1.00  0.00    +0.167 C 
ATOM     14  C   UNL     1      -7.726 -10.736   9.308  1.00  0.00    +0.139 C 
BRANCH  10  15
ATOM     15  C   UNL     1      -6.885 -14.283   8.673  1.00  0.00    +0.191 C 
BRANCH  15  16
ATOM     16  O   UNL     1      -5.653 -13.565   8.672  1.00  0.00    -0.394 OA
ATOM     17  H   UNL     1      -5.624 -13.047   9.496  1.00  0.00    +0.210 HD
ENDBRANCH  15  16
ENDBRANCH  10  15
BRANCH  11  18
ATOM     18  O   UNL     1      -9.414 -14.033  10.189  1.00  0.00    -0.388 OA
ATOM     19  H   UNL     1      -8.906 -13.953  11.018  1.00  0.00    +0.211 HD
ENDBRANCH  11  18
BRANCH  13  20
ATOM     20  O   UNL     1      -9.491 -11.222  10.929  1.00  0.00    -0.388 OA
ATOM     21  H   UNL     1      -9.439 -10.267  10.733  1.00  0.00    +0.211 HD
ENDBRANCH  13  20
BRANCH  14  22
ATOM     22  N   UNL     1      -6.262 -10.697   9.604  1.00  0.00    -0.321 NA
ATOM     23  H   UNL     1      -6.023  -9.695   9.679  1.00  0.00    +0.119 HD
ATOM     24  H   UNL     1      -6.153 -11.029  10.579  1.00  0.00    +0.119 HD
ENDBRANCH  14  22
ENDBRANCH   8   9
ENDBRANCH   7   8
ENDBRANCH   1   7
BRANCH   2  25
ATOM     25  O   UNL     1      -4.317 -11.664   6.491  1.00  0.00    -0.342 OA
BRANCH  25  26
ATOM     26  C   UNL     1      -3.202 -11.450   7.365  1.00  0.00    +0.270 C 
ATOM     27  C   UNL     1      -2.304 -12.726   7.326  1.00  0.00    +0.139 C 
ATOM     28  O   UNL     1      -3.652 -11.193   8.693  1.00  0.00    -0.342 OA
ATOM     29  C   UNL     1      -1.104 -12.574   8.302  1.00  0.00    +0.167 C 
ATOM     30  C   UNL     1      -2.614 -11.064   9.675  1.00  0.00    +0.178 C 
ATOM     31  C   UNL     1      -1.191 -11.280   9.120  1.00  0.00    +0.176 C 
BRANCH  27  32
ATOM     32  N   UNL     1      -3.098 -13.963   7.546  1.00  0.00    -0.321 NA
ATOM     33  H   UNL     1      -2.562 -14.743   7.150  1.00  0.00    +0.119 HD
ATOM     34  H   UNL     1      -3.088 -14.143   8.552  1.00  0.00    +0.119 HD
ENDBRANCH  27  32
BRANCH  29  35
ATOM     35  O   UNL     1      -0.974 -13.674   9.225  1.00  0.00    -0.388 OA
ATOM     36  H   UNL     1      -1.204 -14.468   8.697  1.00  0.00    +0.211 HD
ENDBRANCH  29  35
BRANCH  30  37
ATOM     37  C   UNL     1      -2.983 -11.937  10.893  1.00  0.00    +0.191 C 
BRANCH  37  38
ATOM     38  O   UNL     1      -3.723 -13.110  10.562  1.00  0.00    -0.394 OA
ATOM     39  H   UNL     1      -3.096 -13.738  10.135  1.00  0.00    +0.210 HD
ENDBRANCH  37  38
ENDBRANCH  30  37
BRANCH  31  40
ATOM     40  O   UNL     1      -0.193 -11.297  10.145  1.00  0.00    -0.388 OA
ATOM     41  H   UNL     1      -0.444 -10.636  10.817  1.00  0.00    +0.211 HD
ENDBRANCH  31  40
ENDBRANCH  25  26
ENDBRANCH   2  25
BRANCH   3  42
ATOM     42  O   UNL     1      -3.129 -12.457   4.046  1.00  0.00    -0.343 OA
BRANCH  42  43
ATOM     43  C   UNL     1      -3.373 -13.864   3.935  1.00  0.00    +0.270 C 
ATOM     44  C   UNL     1      -3.696 -14.156   2.446  1.00  0.00    +0.139 C 
ATOM     45  O   UNL     1      -4.461 -14.200   4.801  1.00  0.00    -0.342 OA
ATOM     46  C   UNL     1      -4.225 -15.587   2.269  1.00  0.00    +0.167 C 
ATOM     47  C   UNL     1      -4.929 -15.549   4.691  1.00  0.00    +0.178 C 
ATOM     48  C   UNL     1      -5.369 -15.857   3.249  1.00  0.00    +0.176 C 
BRANCH  44  49
ATOM     49  N   UNL     1      -2.514 -13.944   1.575  1.00  0.00    -0.321 NA
ATOM     50  H   UNL     1      -2.272 -12.953   1.604  1.00  0.00    +0.119 HD
ATOM     51  H   UNL     1      -2.808 -14.149   0.615  1.00  0.00    +0.119 HD
ENDBRANCH  44  49
BRANCH  46  52
ATOM     52  O   UNL     1      -4.705 -15.764   0.924  1.00  0.00    -0.388 OA
ATOM     53  H   UNL     1      -5.330 -16.516   0.975  1.00  0.00    +0.211 HD
ENDBRANCH  46  52
BRANCH  47  54
ATOM     54  C   UNL     1      -3.923 -16.550   5.289  1.00  0.00    +0.191 C 
BRANCH  54  55
ATOM     55  O   UNL     1      -4.589 -17.733   5.721  1.00  0.00    -0.394 OA
ATOM     56  H   UNL     1      -4.788 -17.618   6.671  1.00  0.00    +0.210 HD
ENDBRANCH  54  55
ENDBRANCH  47  54
BRANCH  48  57
ATOM     57  O   UNL     1      -5.844 -17.194   3.051  1.00  0.00    -0.388 OA
ATOM     58  H   UNL     1      -5.229 -17.639   2.425  1.00  0.00    +0.211 HD
ENDBRANCH  48  57
ENDBRANCH  42  43
ENDBRANCH   3  42
BRANCH   5  59
ATOM     59  O   UNL     1      -5.821  -8.987   1.861  1.00  0.00    -0.320 OA
BRANCH  59  60
ATOM     60  C   UNL     1      -7.157  -8.601   1.534  1.00  0.00    +0.273 C 
ATOM     61  C   UNL     1      -7.182  -7.420   0.520  1.00  0.00    +0.140 C 
ATOM     62  O   UNL     1      -7.756  -9.772   0.959  1.00  0.00    -0.342 OA
ATOM     63  C   UNL     1      -8.630  -7.191   0.036  1.00  0.00    +0.174 C 
ATOM     64  C   UNL     1      -9.131  -9.577   0.589  1.00  0.00    +0.178 C 
ATOM     65  C   UNL     1      -9.249  -8.493  -0.484  1.00  0.00    +0.176 C 
BRANCH  61  66
ATOM     66  N   UNL     1      -6.655  -6.157   1.074  1.00  0.00    -0.321 NA
ATOM     67  H   UNL     1      -5.630  -6.162   0.986  1.00  0.00    +0.119 HD
ATOM     68  H   UNL     1      -6.839  -6.144   2.089  1.00  0.00    +0.119 HD
ENDBRANCH  61  66
BRANCH  63  69
ATOM     69  O   UNL     1      -8.652  -6.250  -1.056  1.00  0.00    -0.343 OA
BRANCH  69  70
ATOM     70  C   UNL     1      -9.324  -5.034  -0.717  1.00  0.00    +0.270 C 
ATOM     71  C   UNL     1      -8.564  -3.834  -1.356  1.00  0.00    +0.139 C 
ATOM     72  O   UNL     1     -10.693  -5.143  -1.136  1.00  0.00    -0.342 OA
ATOM     73  C   UNL     1      -9.585  -2.721  -1.618  1.00  0.00    +0.167 C 
ATOM     74  C   UNL     1     -10.900  -4.723  -2.494  1.00  0.00    +0.178 C 
ATOM     75  C   UNL     1     -10.643  -3.202  -2.627  1.00  0.00    +0.176 C 
BRANCH  71  76
ATOM     76  N   UNL     1      -7.423  -3.351  -0.535  1.00  0.00    -0.321 NA
ATOM     77  H   UNL     1      -7.322  -2.353  -0.755  1.00  0.00    +0.119 HD
ATOM     78  H   UNL     1      -7.720  -3.350   0.454  1.00  0.00    +0.119 HD
ENDBRANCH  71  76
BRANCH  73  79
ATOM     79  O   UNL     1      -8.938  -1.545  -2.132  1.00  0.00    -0.388 OA
ATOM     80  H   UNL     1      -9.107  -0.853  -1.463  1.00  0.00    +0.211 HD
ENDBRANCH  73  79
BRANCH  74  81
ATOM     81  C   UNL     1     -12.304  -5.166  -2.926  1.00  0.00    +0.191 C 
BRANCH  81  82
ATOM     82  O   UNL     1     -12.251  -6.388  -3.669  1.00  0.00    -0.394 OA
ATOM     83  H   UNL     1     -12.041  -7.095  -3.032  1.00  0.00    +0.210 HD
ENDBRANCH  81  82
ENDBRANCH  74  81
BRANCH  75  84
ATOM     84  O   UNL     1     -11.796  -2.369  -2.442  1.00  0.00    -0.388 OA
ATOM     85  H   UNL     1     -11.714  -1.955  -1.553  1.00  0.00    +0.211 HD
ENDBRANCH  75  84
ENDBRANCH  69  70
ENDBRANCH  63  69
BRANCH  64  86
ATOM     86  C   UNL     1      -9.660 -10.923   0.087  1.00  0.00    +0.191 C 
BRANCH  86  87
ATOM     87  O   UNL     1      -9.175 -11.969   0.936  1.00  0.00    -0.394 OA
ATOM     88  H   UNL     1      -8.584 -12.498   0.365  1.00  0.00    +0.210 HD
ENDBRANCH  86  87
ENDBRANCH  64  86
BRANCH  65  89
ATOM     89  O   UNL     1     -10.622  -8.265  -0.821  1.00  0.00    -0.388 OA
ATOM     90  H   UNL     1     -10.615  -7.548  -1.487  1.00  0.00    +0.211 HD
ENDBRANCH  65  89
ENDBRANCH  59  60
ENDBRANCH   5  59
BRANCH   4  91
ATOM     91  N   UNL     1      -3.228  -9.947   2.600  1.00  0.00    -0.321 NA
ATOM     92  H   UNL     1      -2.558 -10.555   2.121  1.00  0.00    +0.119 HD
ATOM     93  H   UNL     1      -2.833  -9.718   3.515  1.00  0.00    +0.119 HD
ENDBRANCH   4  91
TORSDOF 36
ENDMDL
MODEL 7
REMARK VINA RESULT:    -6.295      2.468      7.429
REMARK INTER + INTRA:         -23.533
REMARK INTER:                 -16.001
REMARK INTRA:                  -7.532
REMARK UNBOUND:                -7.669
REMARK SMILES N[C@@H]1[C@@H](O[C@@H]2[C@H](N)[C@H](O[C@@H]3O[C@H](CO)[C@@H](O)[C@H](O[C@@H]4O[C@@H](CO)[C@@H](O)[C@H](O)[C@H]4N)[C@H]3N)O[C@@H](CO[C@H]3O[C@@H](CO)[C@@H](O)[C@H](O)[C@H]3N)[C@H]2O[C@H]2O[C@@H](CO)[C@@H](O)[C@@H](O)[C@H]2N)O[C@H](CO)[C@H](O)[C@H]1O
REMARK SMILES IDX 33 1 47 2 5 3 6 4 8 5 32 6 34 7 35 8 36 9 38 10 41 11 37 12
REMARK SMILES IDX 43 13 45 14 39 15 40 16 42 18 44 20 46 22 48 25 49 26 58 27
REMARK SMILES IDX 50 28 56 29 51 30 54 31 59 32 57 35 52 37 53 38 55 40 4 42
REMARK SMILES IDX 3 43 2 44 60 45 66 46 61 47 64 48 1 49 67 52 62 54 63 55
REMARK SMILES IDX 65 57 9 59 10 60 30 61 11 62 17 63 12 64 15 65 31 66 18 69
REMARK SMILES IDX 19 70 28 71 20 72 26 73 21 74 24 75 29 76 27 79 22 81 23 82
REMARK SMILES IDX 25 84 13 86 14 87 16 89 7 91
REMARK H PARENT 40 17 42 19 44 21 46 23 46 24 59 33 59 34 57 36 53 39 55 41
REMARK H PARENT 1 50 1 51 67 53 63 56 65 58 31 67 31 68 29 77 29 78 27 80
REMARK H PARENT 23 83 25 85 14 88 16 90 7 92 7 93
ROOT
ATOM      1  C   UNL     1     -13.365  -6.733  -2.561  1.00  0.00    +0.179 C 
ATOM      2  C   UNL     1     -12.235  -7.773  -2.407  1.00  0.00    +0.183 C 
ATOM      3  C   UNL     1     -12.654  -9.144  -2.975  1.00  0.00    +0.175 C 
ATOM      4  C   UNL     1     -13.177  -8.978  -4.418  1.00  0.00    +0.140 C 
ATOM      5  C   UNL     1     -14.322  -7.926  -4.420  1.00  0.00    +0.273 C 
ATOM      6  O   UNL     1     -13.855  -6.682  -3.914  1.00  0.00    -0.342 OA
ENDROOT
BRANCH   1   7
ATOM      7  C   UNL     1     -14.509  -6.925  -1.536  1.00  0.00    +0.198 C 
BRANCH   7   8
ATOM      8  O   UNL     1     -14.750  -5.720  -0.803  1.00  0.00    -0.348 OA
BRANCH   8   9
ATOM      9  C   UNL     1     -14.153  -4.568  -1.419  1.00  0.00    +0.270 C 
ATOM     10  C   UNL     1     -14.669  -2.529  -2.608  1.00  0.00    +0.178 C 
ATOM     11  C   UNL     1     -13.159  -2.302  -2.427  1.00  0.00    +0.176 C 
ATOM     12  O   UNL     1     -15.149  -3.748  -2.025  1.00  0.00    -0.342 OA
ATOM     13  C   UNL     1     -12.709  -2.525  -0.975  1.00  0.00    +0.167 C 
ATOM     14  C   UNL     1     -13.358  -3.775  -0.338  1.00  0.00    +0.139 C 
BRANCH  10  15
ATOM     15  C   UNL     1     -15.555  -1.378  -2.103  1.00  0.00    +0.191 C 
BRANCH  15  16
ATOM     16  O   UNL     1     -16.220  -1.716  -0.889  1.00  0.00    -0.394 OA
ATOM     17  H   UNL     1     -15.600  -1.528  -0.162  1.00  0.00    +0.210 HD
ENDBRANCH  15  16
ENDBRANCH  10  15
BRANCH  11  18
ATOM     18  O   UNL     1     -12.723  -1.015  -2.882  1.00  0.00    -0.388 OA
ATOM     19  H   UNL     1     -12.351  -1.134  -3.775  1.00  0.00    +0.211 HD
ENDBRANCH  11  18
BRANCH  13  20
ATOM     20  O   UNL     1     -11.274  -2.666  -0.977  1.00  0.00    -0.388 OA
ATOM     21  H   UNL     1     -11.092  -3.366  -1.634  1.00  0.00    +0.211 HD
ENDBRANCH  13  20
BRANCH  14  22
ATOM     22  N   UNL     1     -14.243  -3.373   0.797  1.00  0.00    -0.321 NA
ATOM     23  H   UNL     1     -13.901  -3.904   1.614  1.00  0.00    +0.119 HD
ATOM     24  H   UNL     1     -13.985  -2.399   1.036  1.00  0.00    +0.119 HD
ENDBRANCH  14  22
ENDBRANCH   8   9
ENDBRANCH   7   8
ENDBRANCH   1   7
BRANCH   2  25
ATOM     25  O   UNL     1     -11.902  -7.930  -1.015  1.00  0.00    -0.342 OA
BRANCH  25  26
ATOM     26  C   UNL     1     -10.957  -6.951  -0.567  1.00  0.00    +0.270 C 
ATOM     27  C   UNL     1      -9.862  -6.795  -1.668  1.00  0.00    +0.139 C 
ATOM     28  O   UNL     1     -10.373  -7.351   0.670  1.00  0.00    -0.342 OA
ATOM     29  C   UNL     1      -8.775  -5.782  -1.210  1.00  0.00    +0.167 C 
ATOM     30  C   UNL     1      -9.337  -6.490   1.163  1.00  0.00    +0.178 C 
ATOM     31  C   UNL     1      -9.004  -5.307   0.230  1.00  0.00    +0.176 C 
BRANCH  27  32
ATOM     32  N   UNL     1      -9.312  -8.112  -2.085  1.00  0.00    -0.321 NA
ATOM     33  H   UNL     1      -9.759  -8.827  -1.501  1.00  0.00    +0.119 HD
ATOM     34  H   UNL     1      -9.674  -8.297  -3.023  1.00  0.00    +0.119 HD
ENDBRANCH  27  32
BRANCH  29  35
ATOM     35  O   UNL     1      -7.433  -6.303  -1.296  1.00  0.00    -0.388 OA
ATOM     36  H   UNL     1      -7.293  -6.466  -2.253  1.00  0.00    +0.211 HD
ENDBRANCH  29  35
BRANCH  30  37
ATOM     37  C   UNL     1      -8.132  -7.362   1.572  1.00  0.00    +0.191 C 
BRANCH  37  38
ATOM     38  O   UNL     1      -7.886  -8.460   0.695  1.00  0.00    -0.394 OA
ATOM     39  H   UNL     1      -7.891  -8.106  -0.223  1.00  0.00    +0.210 HD
ENDBRANCH  37  38
ENDBRANCH  30  37
BRANCH  31  40
ATOM     40  O   UNL     1      -7.867  -4.557   0.670  1.00  0.00    -0.388 OA
ATOM     41  H   UNL     1      -8.134  -4.045   1.456  1.00  0.00    +0.211 HD
ENDBRANCH  31  40
ENDBRANCH  25  26
ENDBRANCH   2  25
BRANCH   3  42
ATOM     42  O   UNL     1     -11.519 -10.031  -2.874  1.00  0.00    -0.343 OA
BRANCH  42  43
ATOM     43  C   UNL     1     -11.753 -11.204  -2.087  1.00  0.00    +0.270 C 
ATOM     44  C   UNL     1     -10.464 -11.468  -1.264  1.00  0.00    +0.139 C 
ATOM     45  O   UNL     1     -12.060 -12.285  -2.972  1.00  0.00    -0.342 OA
ATOM     46  C   UNL     1     -10.516 -12.844  -0.586  1.00  0.00    +0.167 C 
ATOM     47  C   UNL     1     -12.171 -13.568  -2.347  1.00  0.00    +0.178 C 
ATOM     48  C   UNL     1     -10.870 -13.928  -1.607  1.00  0.00    +0.176 C 
BRANCH  44  49
ATOM     49  N   UNL     1     -10.236 -10.412  -0.246  1.00  0.00    -0.321 NA
ATOM     50  H   UNL     1     -11.101  -9.880  -0.141  1.00  0.00    +0.119 HD
ATOM     51  H   UNL     1      -9.539  -9.769  -0.633  1.00  0.00    +0.119 HD
ENDBRANCH  44  49
BRANCH  46  52
ATOM     52  O   UNL     1      -9.236 -13.147  -0.002  1.00  0.00    -0.388 OA
ATOM     53  H   UNL     1      -9.224 -12.660   0.847  1.00  0.00    +0.211 HD
ENDBRANCH  46  52
BRANCH  47  54
ATOM     54  C   UNL     1     -13.451 -13.679  -1.498  1.00  0.00    +0.191 C 
BRANCH  54  55
ATOM     55  O   UNL     1     -14.013 -14.983  -1.605  1.00  0.00    -0.394 OA
ATOM     56  H   UNL     1     -14.979 -14.871  -1.699  1.00  0.00    +0.210 HD
ENDBRANCH  54  55
ENDBRANCH  47  54
BRANCH  48  57
ATOM     57  O   UNL     1     -10.901 -15.197  -0.944  1.00  0.00    -0.388 OA
ATOM     58  H   UNL     1     -11.765 -15.621  -1.150  1.00  0.00    +0.211 HD
ENDBRANCH  48  57
ENDBRANCH  42  43
ENDBRANCH   3  42
BRANCH   5  59
ATOM     59  O   UNL     1     -14.775  -7.776  -5.768  1.00  0.00    -0.320 OA
BRANCH  59  60
ATOM     60  C   UNL     1     -16.184  -7.948  -5.932  1.00  0.00    +0.273 C 
ATOM     61  C   UNL     1     -16.602  -9.439  -5.774  1.00  0.00    +0.140 C 
ATOM     62  O   UNL     1     -16.783  -7.144  -4.904  1.00  0.00    -0.342 OA
ATOM     63  C   UNL     1     -18.142  -9.538  -5.740  1.00  0.00    +0.174 C 
ATOM     64  C   UNL     1     -18.219  -7.174  -4.932  1.00  0.00    +0.178 C 
ATOM     65  C   UNL     1     -18.731  -8.593  -4.687  1.00  0.00    +0.176 C 
BRANCH  61  66
ATOM     66  N   UNL     1     -16.087 -10.312  -6.847  1.00  0.00    -0.321 NA
ATOM     67  H   UNL     1     -15.411  -9.779  -7.409  1.00  0.00    +0.119 HD
ATOM     68  H   UNL     1     -16.862 -10.529  -7.492  1.00  0.00    +0.119 HD
ENDBRANCH  61  66
BRANCH  63  69
ATOM     69  O   UNL     1     -18.552 -10.874  -5.384  1.00  0.00    -0.343 OA
BRANCH  69  70
ATOM     70  C   UNL     1     -17.965 -11.317  -4.157  1.00  0.00    +0.270 C 
ATOM     71  C   UNL     1     -19.077 -11.918  -3.246  1.00  0.00    +0.139 C 
ATOM     72  O   UNL     1     -16.910 -12.239  -4.469  1.00  0.00    -0.342 OA
ATOM     73  C   UNL     1     -18.425 -12.978  -2.351  1.00  0.00    +0.167 C 
ATOM     74  C   UNL     1     -17.366 -13.596  -4.587  1.00  0.00    +0.178 C 
ATOM     75  C   UNL     1     -17.852 -14.117  -3.212  1.00  0.00    +0.176 C 
BRANCH  71  76
ATOM     76  N   UNL     1     -19.805 -10.897  -2.449  1.00  0.00    -0.321 NA
ATOM     77  H   UNL     1     -19.616  -9.998  -2.907  1.00  0.00    +0.119 HD
ATOM     78  H   UNL     1     -20.817 -11.036  -2.601  1.00  0.00    +0.119 HD
ENDBRANCH  71  76
BRANCH  73  79
ATOM     79  O   UNL     1     -19.379 -13.518  -1.421  1.00  0.00    -0.388 OA
ATOM     80  H   UNL     1     -19.620 -12.767  -0.844  1.00  0.00    +0.211 HD
ENDBRANCH  73  79
BRANCH  74  81
ATOM     81  C   UNL     1     -16.240 -14.429  -5.215  1.00  0.00    +0.191 C 
BRANCH  81  82
ATOM     82  O   UNL     1     -15.033 -14.316  -4.454  1.00  0.00    -0.394 OA
ATOM     83  H   UNL     1     -14.852 -13.364  -4.355  1.00  0.00    +0.210 HD
ENDBRANCH  81  82
ENDBRANCH  74  81
BRANCH  75  84
ATOM     84  O   UNL     1     -16.853 -14.771  -2.417  1.00  0.00    -0.388 OA
ATOM     85  H   UNL     1     -16.872 -15.725  -2.658  1.00  0.00    +0.211 HD
ENDBRANCH  75  84
ENDBRANCH  69  70
ENDBRANCH  63  69
BRANCH  64  86
ATOM     86  C   UNL     1     -18.713  -6.205  -3.855  1.00  0.00    +0.191 C 
BRANCH  86  87
ATOM     87  O   UNL     1     -17.591  -5.532  -3.273  1.00  0.00    -0.394 OA
ATOM     88  H   UNL     1     -17.817  -5.449  -2.325  1.00  0.00    +0.210 HD
ENDBRANCH  86  87
ENDBRANCH  64  86
BRANCH  65  89
ATOM     89  O   UNL     1     -20.162  -8.633  -4.761  1.00  0.00    -0.388 OA
ATOM     90  H   UNL     1     -20.434  -9.390  -4.203  1.00  0.00    +0.211 HD
ENDBRANCH  65  89
ENDBRANCH  59  60
ENDBRANCH   5  59
BRANCH   4  91
ATOM     91  N   UNL     1     -12.074  -8.625  -5.346  1.00  0.00    -0.321 NA
ATOM     92  H   UNL     1     -11.203  -8.976  -4.941  1.00  0.00    +0.119 HD
ATOM     93  H   UNL     1     -12.008  -7.604  -5.377  1.00  0.00    +0.119 HD
ENDBRANCH   4  91
TORSDOF 36
ENDMDL
MODEL 8
REMARK VINA RESULT:    -5.980      5.755      9.845
REMARK INTER + INTRA:         -22.738
REMARK INTER:                 -15.958
REMARK INTRA:                  -6.780
REMARK UNBOUND:                -7.669
REMARK SMILES N[C@@H]1[C@@H](O[C@@H]2[C@H](N)[C@H](O[C@@H]3O[C@H](CO)[C@@H](O)[C@H](O[C@@H]4O[C@@H](CO)[C@@H](O)[C@H](O)[C@H]4N)[C@H]3N)O[C@@H](CO[C@H]3O[C@@H](CO)[C@@H](O)[C@H](O)[C@H]3N)[C@H]2O[C@H]2O[C@@H](CO)[C@@H](O)[C@@H](O)[C@H]2N)O[C@H](CO)[C@H](O)[C@H]1O
REMARK SMILES IDX 33 1 47 2 5 3 6 4 8 5 32 6 34 7 35 8 36 9 38 10 41 11 37 12
REMARK SMILES IDX 43 13 45 14 39 15 40 16 42 18 44 20 46 22 48 25 49 26 58 27
REMARK SMILES IDX 50 28 56 29 51 30 54 31 59 32 57 35 52 37 53 38 55 40 4 42
REMARK SMILES IDX 3 43 2 44 60 45 66 46 61 47 64 48 1 49 67 52 62 54 63 55
REMARK SMILES IDX 65 57 9 59 10 60 30 61 11 62 17 63 12 64 15 65 31 66 18 69
REMARK SMILES IDX 19 70 28 71 20 72 26 73 21 74 24 75 29 76 27 79 22 81 23 82
REMARK SMILES IDX 25 84 13 86 14 87 16 89 7 91
REMARK H PARENT 40 17 42 19 44 21 46 23 46 24 59 33 59 34 57 36 53 39 55 41
REMARK H PARENT 1 50 1 51 67 53 63 56 65 58 31 67 31 68 29 77 29 78 27 80
REMARK H PARENT 23 83 25 85 14 88 16 90 7 92 7 93
ROOT
ATOM      1  C   UNL     1      -4.744 -11.320   2.080  1.00  0.00    +0.179 C 
ATOM      2  C   UNL     1      -5.066 -12.291   3.235  1.00  0.00    +0.183 C 
ATOM      3  C   UNL     1      -5.274 -11.533   4.562  1.00  0.00    +0.175 C 
ATOM      4  C   UNL     1      -6.309 -10.404   4.368  1.00  0.00    +0.140 C 
ATOM      5  C   UNL     1      -5.846  -9.493   3.195  1.00  0.00    +0.273 C 
ATOM      6  O   UNL     1      -5.708 -10.254   2.001  1.00  0.00    -0.342 OA
ENDROOT
BRANCH   1   7
ATOM      7  C   UNL     1      -3.291 -10.788   2.123  1.00  0.00    +0.198 C 
BRANCH   7   8
ATOM      8  O   UNL     1      -2.512 -11.333   1.053  1.00  0.00    -0.348 OA
BRANCH   8   9
ATOM      9  C   UNL     1      -1.113 -11.406   1.367  1.00  0.00    +0.270 C 
ATOM     10  C   UNL     1       0.443 -11.902   3.148  1.00  0.00    +0.178 C 
ATOM     11  C   UNL     1       1.459 -11.752   2.003  1.00  0.00    +0.176 C 
ATOM     12  O   UNL     1      -0.921 -11.730   2.741  1.00  0.00    -0.342 OA
ATOM     13  C   UNL     1       1.063 -12.572   0.765  1.00  0.00    +0.167 C 
ATOM     14  C   UNL     1      -0.445 -12.469   0.443  1.00  0.00    +0.139 C 
BRANCH  10  15
ATOM     15  C   UNL     1       0.547 -13.224   3.927  1.00  0.00    +0.191 C 
BRANCH  15  16
ATOM     16  O   UNL     1      -0.536 -14.100   3.626  1.00  0.00    -0.394 OA
ATOM     17  H   UNL     1      -0.774 -13.951   2.693  1.00  0.00    +0.210 HD
ENDBRANCH  15  16
ENDBRANCH  10  15
BRANCH  11  18
ATOM     18  O   UNL     1       2.800 -12.072   2.393  1.00  0.00    -0.388 OA
ATOM     19  H   UNL     1       3.399 -11.571   1.809  1.00  0.00    +0.211 HD
ENDBRANCH  11  18
BRANCH  13  20
ATOM     20  O   UNL     1       1.835 -12.083  -0.350  1.00  0.00    -0.388 OA
ATOM     21  H   UNL     1       1.237 -12.149  -1.118  1.00  0.00    +0.211 HD
ENDBRANCH  13  20
BRANCH  14  22
ATOM     22  N   UNL     1      -1.096 -13.805   0.599  1.00  0.00    -0.321 NA
ATOM     23  H   UNL     1      -0.322 -14.475   0.736  1.00  0.00    +0.119 HD
ATOM     24  H   UNL     1      -1.556 -13.798   1.526  1.00  0.00    +0.119 HD
ENDBRANCH  14  22
ENDBRANCH   8   9
ENDBRANCH   7   8
ENDBRANCH   1   7
BRANCH   2  25
ATOM     25  O   UNL     1      -3.988 -13.229   3.402  1.00  0.00    -0.342 OA
BRANCH  25  26
ATOM     26  C   UNL     1      -4.160 -14.405   2.601  1.00  0.00    +0.270 C 
ATOM     27  C   UNL     1      -5.269 -15.283   3.262  1.00  0.00    +0.139 C 
ATOM     28  O   UNL     1      -2.935 -15.128   2.507  1.00  0.00    -0.342 OA
ATOM     29  C   UNL     1      -5.460 -16.603   2.464  1.00  0.00    +0.167 C 
ATOM     30  C   UNL     1      -3.017 -16.379   1.809  1.00  0.00    +0.178 C 
ATOM     31  C   UNL     1      -4.438 -16.741   1.329  1.00  0.00    +0.176 C 
BRANCH  27  32
ATOM     32  N   UNL     1      -5.011 -15.494   4.711  1.00  0.00    -0.321 NA
ATOM     33  H   UNL     1      -3.995 -15.450   4.848  1.00  0.00    +0.119 HD
ATOM     34  H   UNL     1      -5.361 -14.663   5.195  1.00  0.00    +0.119 HD
ENDBRANCH  27  32
BRANCH  29  35
ATOM     35  O   UNL     1      -5.373 -17.786   3.285  1.00  0.00    -0.388 OA
ATOM     36  H   UNL     1      -5.515 -18.530   2.662  1.00  0.00    +0.211 HD
ENDBRANCH  29  35
BRANCH  30  37
ATOM     37  C   UNL     1      -2.317 -17.459   2.660  1.00  0.00    +0.191 C 
BRANCH  37  38
ATOM     38  O   UNL     1      -2.470 -17.279   4.067  1.00  0.00    -0.394 OA
ATOM     39  H   UNL     1      -2.628 -16.319   4.221  1.00  0.00    +0.210 HD
ENDBRANCH  37  38
ENDBRANCH  30  37
BRANCH  31  40
ATOM     40  O   UNL     1      -4.517 -18.058   0.775  1.00  0.00    -0.388 OA
ATOM     41  H   UNL     1      -4.793 -18.665   1.488  1.00  0.00    +0.211 HD
ENDBRANCH  31  40
ENDBRANCH  25  26
ENDBRANCH   2  25
BRANCH   3  42
ATOM     42  O   UNL     1      -5.656 -12.496   5.568  1.00  0.00    -0.343 OA
BRANCH  42  43
ATOM     43  C   UNL     1      -4.768 -12.564   6.690  1.00  0.00    +0.270 C 
ATOM     44  C   UNL     1      -5.506 -13.344   7.810  1.00  0.00    +0.139 C 
ATOM     45  O   UNL     1      -4.440 -11.229   7.085  1.00  0.00    -0.342 OA
ATOM     46  C   UNL     1      -4.745 -13.248   9.140  1.00  0.00    +0.167 C 
ATOM     47  C   UNL     1      -3.679 -11.124   8.293  1.00  0.00    +0.178 C 
ATOM     48  C   UNL     1      -4.423 -11.787   9.466  1.00  0.00    +0.176 C 
BRANCH  44  49
ATOM     49  N   UNL     1      -5.710 -14.768   7.447  1.00  0.00    -0.321 NA
ATOM     50  H   UNL     1      -6.713 -14.935   7.369  1.00  0.00    +0.119 HD
ATOM     51  H   UNL     1      -5.378 -15.329   8.238  1.00  0.00    +0.119 HD
ENDBRANCH  44  49
BRANCH  46  52
ATOM     52  O   UNL     1      -5.546 -13.801  10.200  1.00  0.00    -0.388 OA
ATOM     53  H   UNL     1      -6.435 -13.922   9.809  1.00  0.00    +0.211 HD
ENDBRANCH  46  52
BRANCH  47  54
ATOM     54  C   UNL     1      -2.228 -11.601   8.095  1.00  0.00    +0.191 C 
BRANCH  54  55
ATOM     55  O   UNL     1      -1.346 -10.899   8.965  1.00  0.00    -0.394 OA
ATOM     56  H   UNL     1      -0.863 -11.571   9.485  1.00  0.00    +0.210 HD
ENDBRANCH  54  55
ENDBRANCH  47  54
BRANCH  48  57
ATOM     57  O   UNL     1      -3.723 -11.734  10.714  1.00  0.00    -0.388 OA
ATOM     58  H   UNL     1      -3.495 -10.793  10.888  1.00  0.00    +0.211 HD
ENDBRANCH  48  57
ENDBRANCH  42  43
ENDBRANCH   3  42
BRANCH   5  59
ATOM     59  O   UNL     1      -6.829  -8.471   3.022  1.00  0.00    -0.320 OA
BRANCH  59  60
ATOM     60  C   UNL     1      -7.118  -8.164   1.657  1.00  0.00    +0.273 C 
ATOM     61  C   UNL     1      -8.464  -8.798   1.198  1.00  0.00    +0.140 C 
ATOM     62  O   UNL     1      -7.190  -6.732   1.600  1.00  0.00    -0.342 OA
ATOM     63  C   UNL     1      -8.833  -8.259  -0.200  1.00  0.00    +0.174 C 
ATOM     64  C   UNL     1      -7.451  -6.233   0.278  1.00  0.00    +0.178 C 
ATOM     65  C   UNL     1      -8.808  -6.727  -0.224  1.00  0.00    +0.176 C 
BRANCH  61  66
ATOM     66  N   UNL     1      -8.434 -10.274   1.153  1.00  0.00    -0.321 NA
ATOM     67  H   UNL     1      -7.489 -10.592   1.407  1.00  0.00    +0.119 HD
ATOM     68  H   UNL     1      -8.567 -10.573   0.175  1.00  0.00    +0.119 HD
ENDBRANCH  61  66
BRANCH  63  69
ATOM     69  O   UNL     1     -10.171  -8.663  -0.556  1.00  0.00    -0.343 OA
BRANCH  69  70
ATOM     70  C   UNL     1     -10.248  -9.193  -1.882  1.00  0.00    +0.270 C 
ATOM     71  C   UNL     1     -11.259 -10.378  -1.902  1.00  0.00    +0.139 C 
ATOM     72  O   UNL     1     -10.589  -8.124  -2.777  1.00  0.00    -0.342 OA
ATOM     73  C   UNL     1     -11.864 -10.451  -3.309  1.00  0.00    +0.167 C 
ATOM     74  C   UNL     1     -12.007  -7.936  -2.913  1.00  0.00    +0.178 C 
ATOM     75  C   UNL     1     -12.642  -9.161  -3.618  1.00  0.00    +0.176 C 
BRANCH  71  76
ATOM     76  N   UNL     1     -10.660 -11.675  -1.492  1.00  0.00    -0.321 NA
ATOM     77  H   UNL     1      -9.782 -11.439  -1.016  1.00  0.00    +0.119 HD
ATOM     78  H   UNL     1     -11.243 -12.070  -0.738  1.00  0.00    +0.119 HD
ENDBRANCH  71  76
BRANCH  73  79
ATOM     79  O   UNL     1     -12.748 -11.579  -3.426  1.00  0.00    -0.388 OA
ATOM     80  H   UNL     1     -13.509 -11.249  -3.941  1.00  0.00    +0.211 HD
ENDBRANCH  73  79
BRANCH  74  81
ATOM     81  C   UNL     1     -12.250  -6.600  -3.629  1.00  0.00    +0.191 C 
BRANCH  81  82
ATOM     82  O   UNL     1     -13.636  -6.427  -3.935  1.00  0.00    -0.394 OA
ATOM     83  H   UNL     1     -13.948  -7.270  -4.312  1.00  0.00    +0.210 HD
ENDBRANCH  81  82
ENDBRANCH  74  81
BRANCH  75  84
ATOM     84  O   UNL     1     -12.731  -9.066  -5.046  1.00  0.00    -0.388 OA
ATOM     85  H   UNL     1     -13.568  -8.593  -5.252  1.00  0.00    +0.211 HD
ENDBRANCH  75  84
ENDBRANCH  69  70
ENDBRANCH  63  69
BRANCH  64  86
ATOM     86  C   UNL     1      -7.403  -4.705   0.353  1.00  0.00    +0.191 C 
BRANCH  86  87
ATOM     87  O   UNL     1      -8.719  -4.178   0.150  1.00  0.00    -0.394 OA
ATOM     88  H   UNL     1      -9.223  -4.459   0.940  1.00  0.00    +0.210 HD
ENDBRANCH  86  87
ENDBRANCH  64  86
BRANCH  65  89
ATOM     89  O   UNL     1      -9.049  -6.269  -1.560  1.00  0.00    -0.388 OA
ATOM     90  H   UNL     1      -9.335  -5.337  -1.472  1.00  0.00    +0.211 HD
ENDBRANCH  65  89
ENDBRANCH  59  60
ENDBRANCH   5  59
BRANCH   4  91
ATOM     91  N   UNL     1      -7.669 -10.961   4.157  1.00  0.00    -0.321 NA
ATOM     92  H   UNL     1      -7.713 -11.320   3.201  1.00  0.00    +0.119 HD
ATOM     93  H   UNL     1      -8.335 -10.188   4.225  1.00  0.00    +0.119 HD
ENDBRANCH   4  91
TORSDOF 36
ENDMDL
MODEL 9
REMARK VINA RESULT:    -5.780      2.725      5.228
REMARK INTER + INTRA:         -22.235
REMARK INTER:                 -15.726
REMARK INTRA:                  -6.509
REMARK UNBOUND:                -7.669
REMARK SMILES N[C@@H]1[C@@H](O[C@@H]2[C@H](N)[C@H](O[C@@H]3O[C@H](CO)[C@@H](O)[C@H](O[C@@H]4O[C@@H](CO)[C@@H](O)[C@H](O)[C@H]4N)[C@H]3N)O[C@@H](CO[C@H]3O[C@@H](CO)[C@@H](O)[C@H](O)[C@H]3N)[C@H]2O[C@H]2O[C@@H](CO)[C@@H](O)[C@@H](O)[C@H]2N)O[C@H](CO)[C@H](O)[C@H]1O
REMARK SMILES IDX 33 1 47 2 5 3 6 4 8 5 32 6 34 7 35 8 36 9 38 10 41 11 37 12
REMARK SMILES IDX 43 13 45 14 39 15 40 16 42 18 44 20 46 22 48 25 49 26 58 27
REMARK SMILES IDX 50 28 56 29 51 30 54 31 59 32 57 35 52 37 53 38 55 40 4 42
REMARK SMILES IDX 3 43 2 44 60 45 66 46 61 47 64 48 1 49 67 52 62 54 63 55
REMARK SMILES IDX 65 57 9 59 10 60 30 61 11 62 17 63 12 64 15 65 31 66 18 69
REMARK SMILES IDX 19 70 28 71 20 72 26 73 21 74 24 75 29 76 27 79 22 81 23 82
REMARK SMILES IDX 25 84 13 86 14 87 16 89 7 91
REMARK H PARENT 40 17 42 19 44 21 46 23 46 24 59 33 59 34 57 36 53 39 55 41
REMARK H PARENT 1 50 1 51 67 53 63 56 65 58 31 67 31 68 29 77 29 78 27 80
REMARK H PARENT 23 83 25 85 14 88 16 90 7 92 7 93
ROOT
ATOM      1  C   UNL     1     -13.139  -7.315  -2.839  1.00  0.00    +0.179 C 
ATOM      2  C   UNL     1     -13.871  -8.343  -1.951  1.00  0.00    +0.183 C 
ATOM      3  C   UNL     1     -15.029  -7.686  -1.172  1.00  0.00    +0.175 C 
ATOM      4  C   UNL     1     -15.945  -6.913  -2.145  1.00  0.00    +0.140 C 
ATOM      5  C   UNL     1     -15.083  -5.901  -2.952  1.00  0.00    +0.273 C 
ATOM      6  O   UNL     1     -14.059  -6.581  -3.667  1.00  0.00    -0.342 OA
ENDROOT
BRANCH   1   7
ATOM      7  C   UNL     1     -12.204  -6.377  -2.036  1.00  0.00    +0.198 C 
BRANCH   7   8
ATOM      8  O   UNL     1     -10.937  -6.996  -1.797  1.00  0.00    -0.348 OA
BRANCH   8   9
ATOM      9  C   UNL     1      -9.867  -6.045  -1.691  1.00  0.00    +0.270 C 
ATOM     10  C   UNL     1      -9.310  -3.718  -2.034  1.00  0.00    +0.178 C 
ATOM     11  C   UNL     1      -8.003  -4.160  -1.355  1.00  0.00    +0.176 C 
ATOM     12  O   UNL     1     -10.281  -4.766  -2.163  1.00  0.00    -0.342 OA
ATOM     13  C   UNL     1      -8.258  -4.945  -0.060  1.00  0.00    +0.167 C 
ATOM     14  C   UNL     1      -9.407  -5.969  -0.203  1.00  0.00    +0.139 C 
BRANCH  10  15
ATOM     15  C   UNL     1      -9.996  -2.509  -1.376  1.00  0.00    +0.191 C 
BRANCH  15  16
ATOM     16  O   UNL     1     -11.302  -2.834  -0.907  1.00  0.00    -0.394 OA
ATOM     17  H   UNL     1     -11.617  -3.588  -1.438  1.00  0.00    +0.210 HD
ENDBRANCH  15  16
ENDBRANCH  10  15
BRANCH  11  18
ATOM     18  O   UNL     1      -7.104  -3.073  -1.100  1.00  0.00    -0.388 OA
ATOM     19  H   UNL     1      -6.225  -3.458  -0.926  1.00  0.00    +0.211 HD
ENDBRANCH  11  18
BRANCH  13  20
ATOM     20  O   UNL     1      -7.036  -5.627   0.288  1.00  0.00    -0.388 OA
ATOM     21  H   UNL     1      -6.672  -5.939  -0.563  1.00  0.00    +0.211 HD
ENDBRANCH  13  20
BRANCH  14  22
ATOM     22  N   UNL     1     -10.543  -5.596   0.694  1.00  0.00    -0.321 NA
ATOM     23  H   UNL     1     -11.397  -5.730   0.129  1.00  0.00    +0.119 HD
ATOM     24  H   UNL     1     -10.617  -6.351   1.398  1.00  0.00    +0.119 HD
ENDBRANCH  14  22
ENDBRANCH   8   9
ENDBRANCH   7   8
ENDBRANCH   1   7
BRANCH   2  25
ATOM     25  O   UNL     1     -12.949  -8.920  -1.008  1.00  0.00    -0.342 OA
BRANCH  25  26
ATOM     26  C   UNL     1     -12.998 -10.353  -1.007  1.00  0.00    +0.270 C 
ATOM     27  C   UNL     1     -11.550 -10.887  -0.772  1.00  0.00    +0.139 C 
ATOM     28  O   UNL     1     -13.517 -10.835  -2.243  1.00  0.00    -0.342 OA
ATOM     29  C   UNL     1     -11.532 -12.440  -0.816  1.00  0.00    +0.167 C 
ATOM     30  C   UNL     1     -13.517 -12.262  -2.390  1.00  0.00    +0.178 C 
ATOM     31  C   UNL     1     -12.901 -13.018  -1.195  1.00  0.00    +0.176 C 
BRANCH  27  32
ATOM     32  N   UNL     1     -10.574 -10.253  -1.698  1.00  0.00    -0.321 NA
ATOM     33  H   UNL     1     -10.380 -10.929  -2.444  1.00  0.00    +0.119 HD
ATOM     34  H   UNL     1     -11.071  -9.496  -2.174  1.00  0.00    +0.119 HD
ENDBRANCH  27  32
BRANCH  29  35
ATOM     35  O   UNL     1     -10.556 -12.976  -1.733  1.00  0.00    -0.388 OA
ATOM     36  H   UNL     1      -9.777 -13.178  -1.173  1.00  0.00    +0.211 HD
ENDBRANCH  29  35
BRANCH  30  37
ATOM     37  C   UNL     1     -12.915 -12.611  -3.767  1.00  0.00    +0.191 C 
BRANCH  37  38
ATOM     38  O   UNL     1     -11.986 -11.645  -4.255  1.00  0.00    -0.394 OA
ATOM     39  H   UNL     1     -11.291 -11.537  -3.567  1.00  0.00    +0.210 HD
ENDBRANCH  37  38
ENDBRANCH  30  37
BRANCH  31  40
ATOM     40  O   UNL     1     -12.774 -14.424  -1.433  1.00  0.00    -0.388 OA
ATOM     41  H   UNL     1     -13.666 -14.779  -1.608  1.00  0.00    +0.211 HD
ENDBRANCH  31  40
ENDBRANCH  25  26
ENDBRANCH   2  25
BRANCH   3  42
ATOM     42  O   UNL     1     -15.715  -8.723  -0.438  1.00  0.00    -0.343 OA
BRANCH  42  43
ATOM     43  C   UNL     1     -16.299  -8.288   0.795  1.00  0.00    +0.270 C 
ATOM     44  C   UNL     1     -15.651  -9.126   1.929  1.00  0.00    +0.139 C 
ATOM     45  O   UNL     1     -17.713  -8.487   0.717  1.00  0.00    -0.342 OA
ATOM     46  C   UNL     1     -16.392  -8.920   3.257  1.00  0.00    +0.167 C 
ATOM     47  C   UNL     1     -18.429  -8.242   1.932  1.00  0.00    +0.178 C 
ATOM     48  C   UNL     1     -17.895  -9.135   3.067  1.00  0.00    +0.176 C 
BRANCH  44  49
ATOM     49  N   UNL     1     -14.213  -8.803   2.098  1.00  0.00    -0.321 NA
ATOM     50  H   UNL     1     -13.867  -9.310   2.913  1.00  0.00    +0.119 HD
ATOM     51  H   UNL     1     -14.155  -7.805   2.325  1.00  0.00    +0.119 HD
ENDBRANCH  44  49
BRANCH  46  52
ATOM     52  O   UNL     1     -15.903  -9.855   4.237  1.00  0.00    -0.388 OA
ATOM     53  H   UNL     1     -15.664 -10.655   3.725  1.00  0.00    +0.211 HD
ENDBRANCH  46  52
BRANCH  47  54
ATOM     54  C   UNL     1     -18.489  -6.739   2.264  1.00  0.00    +0.191 C 
BRANCH  54  55
ATOM     55  O   UNL     1     -18.641  -5.969   1.077  1.00  0.00    -0.394 OA
ATOM     56  H   UNL     1     -17.950  -6.266   0.453  1.00  0.00    +0.210 HD
ENDBRANCH  54  55
ENDBRANCH  47  54
BRANCH  48  57
ATOM     57  O   UNL     1     -18.553  -8.944   4.325  1.00  0.00    -0.388 OA
ATOM     58  H   UNL     1     -18.877  -8.016   4.355  1.00  0.00    +0.211 HD
ENDBRANCH  48  57
ENDBRANCH  42  43
ENDBRANCH   3  42
BRANCH   5  59
ATOM     59  O   UNL     1     -15.950  -5.215  -3.858  1.00  0.00    -0.320 OA
BRANCH  59  60
ATOM     60  C   UNL     1     -16.166  -3.841  -3.530  1.00  0.00    +0.273 C 
ATOM     61  C   UNL     1     -16.522  -3.659  -2.026  1.00  0.00    +0.140 C 
ATOM     62  O   UNL     1     -14.928  -3.182  -3.839  1.00  0.00    -0.342 OA
ATOM     63  C   UNL     1     -16.527  -2.156  -1.679  1.00  0.00    +0.174 C 
ATOM     64  C   UNL     1     -14.968  -1.767  -3.593  1.00  0.00    +0.178 C 
ATOM     65  C   UNL     1     -15.217  -1.487  -2.111  1.00  0.00    +0.176 C 
BRANCH  61  66
ATOM     66  N   UNL     1     -17.826  -4.243  -1.654  1.00  0.00    -0.321 NA
ATOM     67  H   UNL     1     -17.930  -4.193  -0.632  1.00  0.00    +0.119 HD
ATOM     68  H   UNL     1     -17.807  -5.250  -1.874  1.00  0.00    +0.119 HD
ENDBRANCH  61  66
BRANCH  63  69
ATOM     69  O   UNL     1     -16.643  -1.969  -0.253  1.00  0.00    -0.343 OA
BRANCH  69  70
ATOM     70  C   UNL     1     -16.394  -3.172   0.478  1.00  0.00    +0.270 C 
ATOM     71  C   UNL     1     -15.068  -3.018   1.281  1.00  0.00    +0.139 C 
ATOM     72  O   UNL     1     -17.539  -3.447   1.299  1.00  0.00    -0.342 OA
ATOM     73  C   UNL     1     -15.172  -3.901   2.529  1.00  0.00    +0.167 C 
ATOM     74  C   UNL     1     -17.476  -2.810   2.584  1.00  0.00    +0.178 C 
ATOM     75  C   UNL     1     -16.326  -3.417   3.425  1.00  0.00    +0.176 C 
BRANCH  71  76
ATOM     76  N   UNL     1     -13.853  -3.332   0.484  1.00  0.00    -0.321 NA
ATOM     77  H   UNL     1     -14.163  -3.372  -0.494  1.00  0.00    +0.119 HD
ATOM     78  H   UNL     1     -13.235  -2.505   0.506  1.00  0.00    +0.119 HD
ENDBRANCH  71  76
BRANCH  73  79
ATOM     79  O   UNL     1     -13.945  -3.873   3.277  1.00  0.00    -0.388 OA
ATOM     80  H   UNL     1     -14.036  -4.590   3.935  1.00  0.00    +0.211 HD
ENDBRANCH  73  79
BRANCH  74  81
ATOM     81  C   UNL     1     -18.859  -2.913   3.241  1.00  0.00    +0.191 C 
BRANCH  81  82
ATOM     82  O   UNL     1     -18.803  -2.528   4.618  1.00  0.00    -0.394 OA
ATOM     83  H   UNL     1     -19.126  -3.288   5.135  1.00  0.00    +0.210 HD
ENDBRANCH  81  82
ENDBRANCH  74  81
BRANCH  75  84
ATOM     84  O   UNL     1     -16.694  -4.526   4.256  1.00  0.00    -0.388 OA
ATOM     85  H   UNL     1     -17.651  -4.696   4.102  1.00  0.00    +0.211 HD
ENDBRANCH  75  84
ENDBRANCH  69  70
ENDBRANCH  63  69
BRANCH  64  86
ATOM     86  C   UNL     1     -13.627  -1.190  -4.056  1.00  0.00    +0.191 C 
BRANCH  86  87
ATOM     87  O   UNL     1     -12.692  -1.238  -2.973  1.00  0.00    -0.394 OA
ATOM     88  H   UNL     1     -11.910  -1.694  -3.341  1.00  0.00    +0.210 HD
ENDBRANCH  86  87
ENDBRANCH  64  86
BRANCH  65  89
ATOM     89  O   UNL     1     -15.303  -0.076  -1.872  1.00  0.00    -0.388 OA
ATOM     90  H   UNL     1     -14.379   0.234  -1.790  1.00  0.00    +0.211 HD
ENDBRANCH  65  89
ENDBRANCH  59  60
ENDBRANCH   5  59
BRANCH   4  91
ATOM     91  N   UNL     1     -16.700  -7.847  -3.018  1.00  0.00    -0.321 NA
ATOM     92  H   UNL     1     -16.870  -7.371  -3.908  1.00  0.00    +0.119 HD
ATOM     93  H   UNL     1     -17.610  -8.014  -2.581  1.00  0.00    +0.119 HD
ENDBRANCH   4  91
TORSDOF 36
ENDMDL
