MODEL 1
REMARK VINA RESULT:    -6.751      0.000      0.000
REMARK INTER + INTRA:         -24.234
REMARK INTER:                 -17.013
REMARK INTRA:                  -7.221
REMARK UNBOUND:                -7.221
REMARK SMILES N[C@@H]1[C@@H](O[C@@H]2[C@H](N)[C@H](O[C@@H]3O[C@H](CO)[C@@H](O)[C@H](O[C@@H]4O[C@@H](CO)[C@@H](O)[C@H](O)[C@H]4N)[C@H]3N)O[C@@H](CO[C@H]3O[C@@H](CO)[C@@H](O)[C@H](O)[C@H]3N)[C@H]2O[C@H]2O[C@@H](CO)[C@@H](O)[C@@H](O)[C@H]2N)O[C@H](CO)[C@H](O)[C@H]1O
REMARK SMILES IDX 33 1 47 2 5 3 6 4 8 5 32 6 34 7 35 8 36 9 38 10 41 11 37 12
REMARK SMILES IDX 43 13 45 14 39 15 40 16 42 18 44 20 46 22 48 25 49 26 58 27
REMARK SMILES IDX 50 28 56 29 51 30 54 31 59 32 57 35 52 37 53 38 55 40 4 42
REMARK SMILES IDX 3 43 2 44 60 45 66 46 61 47 64 48 1 49 67 52 62 54 63 55
REMARK SMILES IDX 65 57 9 59 10 60 30 61 11 62 17 63 12 64 15 65 31 66 18 69
REMARK SMILES IDX 19 70 28 71 20 72 26 73 21 74 24 75 29 76 27 79 22 81 23 82
REMARK SMILES IDX 25 84 13 86 14 87 16 89 7 91
REMARK H PARENT 40 17 42 19 44 21 46 23 46 24 59 33 59 34 57 36 53 39 55 41
REMARK H PARENT 1 50 1 51 67 53 63 56 65 58 31 67 31 68 29 77 29 78 27 80
REMARK H PARENT 23 83 25 85 14 88 16 90 7 92 7 93
ROOT
ATOM      1  C   UNL     1     -14.911  -5.987  -2.673  1.00  0.00    +0.179 C 
ATOM      2  C   UNL     1     -13.550  -5.267  -2.766  1.00  0.00    +0.183 C 
ATOM      3  C   UNL     1     -12.382  -6.247  -2.532  1.00  0.00    +0.175 C 
ATOM      4  C   UNL     1     -12.524  -7.469  -3.466  1.00  0.00    +0.140 C 
ATOM      5  C   UNL     1     -13.926  -8.106  -3.249  1.00  0.00    +0.273 C 
ATOM      6  O   UNL     1     -14.950  -7.156  -3.513  1.00  0.00    -0.342 OA
ENDROOT
BRANCH   1   7
ATOM      7  C   UNL     1     -15.332  -6.304  -1.217  1.00  0.00    +0.198 C 
BRANCH   7   8
ATOM      8  O   UNL     1     -16.373  -5.425  -0.780  1.00  0.00    -0.348 OA
BRANCH   8   9
ATOM      9  C   UNL     1     -16.063  -4.771   0.459  1.00  0.00    +0.270 C 
ATOM     10  C   UNL     1     -16.612  -2.852   1.821  1.00  0.00    +0.178 C 
ATOM     11  C   UNL     1     -15.696  -3.577   2.822  1.00  0.00    +0.176 C 
ATOM     12  O   UNL     1     -16.791  -3.553   0.583  1.00  0.00    -0.342 OA
ATOM     13  C   UNL     1     -16.071  -5.057   2.985  1.00  0.00    +0.167 C 
ATOM     14  C   UNL     1     -16.391  -5.740   1.636  1.00  0.00    +0.139 C 
BRANCH  10  15
ATOM     15  C   UNL     1     -18.002  -2.491   2.372  1.00  0.00    +0.191 C 
BRANCH  15  16
ATOM     16  O   UNL     1     -17.983  -1.260   3.089  1.00  0.00    -0.394 OA
ATOM     17  H   UNL     1     -17.137  -1.223   3.570  1.00  0.00    +0.210 HD
ENDBRANCH  15  16
ENDBRANCH  10  15
BRANCH  11  18
ATOM     18  O   UNL     1     -15.645  -2.941   4.105  1.00  0.00    -0.388 OA
ATOM     19  H   UNL     1     -14.865  -3.291   4.572  1.00  0.00    +0.211 HD
ENDBRANCH  11  18
BRANCH  13  20
ATOM     20  O   UNL     1     -14.961  -5.724   3.618  1.00  0.00    -0.388 OA
ATOM     21  H   UNL     1     -14.740  -6.466   3.023  1.00  0.00    +0.211 HD
ENDBRANCH  13  20
BRANCH  14  22
ATOM     22  N   UNL     1     -17.824  -6.164   1.601  1.00  0.00    -0.321 NA
ATOM     23  H   UNL     1     -18.371  -5.300   1.751  1.00  0.00    +0.119 HD
ATOM     24  H   UNL     1     -18.035  -6.397   0.615  1.00  0.00    +0.119 HD
ENDBRANCH  14  22
ENDBRANCH   8   9
ENDBRANCH   7   8
ENDBRANCH   1   7
BRANCH   2  25
ATOM     25  O   UNL     1     -13.481  -4.221  -1.780  1.00  0.00    -0.342 OA
BRANCH  25  26
ATOM     26  C   UNL     1     -13.634  -2.918  -2.356  1.00  0.00    +0.270 C 
ATOM     27  C   UNL     1     -13.221  -1.862  -1.283  1.00  0.00    +0.139 C 
ATOM     28  O   UNL     1     -14.981  -2.712  -2.772  1.00  0.00    -0.342 OA
ATOM     29  C   UNL     1     -13.420  -0.423  -1.836  1.00  0.00    +0.167 C 
ATOM     30  C   UNL     1     -15.272  -1.400  -3.274  1.00  0.00    +0.178 C 
ATOM     31  C   UNL     1     -14.075  -0.427  -3.223  1.00  0.00    +0.176 C 
BRANCH  27  32
ATOM     32  N   UNL     1     -13.905  -2.102   0.015  1.00  0.00    -0.321 NA
ATOM     33  H   UNL     1     -14.678  -1.432   0.079  1.00  0.00    +0.119 HD
ATOM     34  H   UNL     1     -14.370  -3.010  -0.063  1.00  0.00    +0.119 HD
ENDBRANCH  27  32
BRANCH  29  35
ATOM     35  O   UNL     1     -14.215   0.417  -0.974  1.00  0.00    -0.388 OA
ATOM     36  H   UNL     1     -13.984   1.332  -1.240  1.00  0.00    +0.211 HD
ENDBRANCH  29  35
BRANCH  30  37
ATOM     37  C   UNL     1     -16.560  -0.891  -2.595  1.00  0.00    +0.191 C 
BRANCH  37  38
ATOM     38  O   UNL     1     -16.715  -1.328  -1.246  1.00  0.00    -0.394 OA
ATOM     39  H   UNL     1     -17.655  -1.172  -0.996  1.00  0.00    +0.210 HD
ENDBRANCH  37  38
ENDBRANCH  30  37
BRANCH  31  40
ATOM     40  O   UNL     1     -14.432   0.911  -3.584  1.00  0.00    -0.388 OA
ATOM     41  H   UNL     1     -14.147   1.057  -4.506  1.00  0.00    +0.211 HD
ENDBRANCH  31  40
ENDBRANCH  25  26
ENDBRANCH   2  25
BRANCH   3  42
ATOM     42  O   UNL     1     -11.148  -5.520  -2.722  1.00  0.00    -0.343 OA
BRANCH  42  43
ATOM     43  C   UNL     1     -10.377  -5.341  -1.529  1.00  0.00    +0.270 C 
ATOM     44  C   UNL     1      -9.314  -4.252  -1.830  1.00  0.00    +0.139 C 
ATOM     45  O   UNL     1      -9.783  -6.596  -1.186  1.00  0.00    -0.342 OA
ATOM     46  C   UNL     1      -8.274  -4.172  -0.704  1.00  0.00    +0.167 C 
ATOM     47  C   UNL     1      -8.854  -6.551  -0.098  1.00  0.00    +0.178 C 
ATOM     48  C   UNL     1      -7.713  -5.562  -0.397  1.00  0.00    +0.176 C 
BRANCH  44  49
ATOM     49  N   UNL     1      -9.934  -2.921  -2.040  1.00  0.00    -0.321 NA
ATOM     50  H   UNL     1      -9.595  -2.294  -1.309  1.00  0.00    +0.119 HD
ATOM     51  H   UNL     1     -10.942  -3.032  -1.888  1.00  0.00    +0.119 HD
ENDBRANCH  44  49
BRANCH  46  52
ATOM     52  O   UNL     1      -7.194  -3.306  -1.099  1.00  0.00    -0.388 OA
ATOM     53  H   UNL     1      -6.855  -3.689  -1.933  1.00  0.00    +0.211 HD
ENDBRANCH  46  52
BRANCH  47  54
ATOM     54  C   UNL     1      -9.566  -6.329   1.250  1.00  0.00    +0.191 C 
BRANCH  54  55
ATOM     55  O   UNL     1      -8.678  -6.579   2.334  1.00  0.00    -0.394 OA
ATOM     56  H   UNL     1      -9.226  -6.675   3.137  1.00  0.00    +0.210 HD
ENDBRANCH  54  55
ENDBRANCH  47  54
BRANCH  48  57
ATOM     57  O   UNL     1      -6.741  -5.450   0.650  1.00  0.00    -0.388 OA
ATOM     58  H   UNL     1      -6.056  -6.138   0.496  1.00  0.00    +0.211 HD
ENDBRANCH  48  57
ENDBRANCH  42  43
ENDBRANCH   3  42
BRANCH   5  59
ATOM     59  O   UNL     1     -14.040  -9.220  -4.137  1.00  0.00    -0.320 OA
BRANCH  59  60
ATOM     60  C   UNL     1     -14.297 -10.464  -3.483  1.00  0.00    +0.273 C 
ATOM     61  C   UNL     1     -13.138 -10.855  -2.519  1.00  0.00    +0.140 C 
ATOM     62  O   UNL     1     -15.514 -10.259  -2.750  1.00  0.00    -0.342 OA
ATOM     63  C   UNL     1     -13.561 -12.080  -1.681  1.00  0.00    +0.174 C 
ATOM     64  C   UNL     1     -15.947 -11.430  -2.039  1.00  0.00    +0.178 C 
ATOM     65  C   UNL     1     -14.909 -11.838  -0.994  1.00  0.00    +0.176 C 
BRANCH  61  66
ATOM     66  N   UNL     1     -11.872 -11.161  -3.214  1.00  0.00    -0.321 NA
ATOM     67  H   UNL     1     -11.714 -10.448  -3.939  1.00  0.00    +0.119 HD
ATOM     68  H   UNL     1     -11.988 -12.048  -3.728  1.00  0.00    +0.119 HD
ENDBRANCH  61  66
BRANCH  63  69
ATOM     69  O   UNL     1     -12.597 -12.331  -0.638  1.00  0.00    -0.343 OA
BRANCH  69  70
ATOM     70  C   UNL     1     -12.489 -11.242   0.282  1.00  0.00    +0.270 C 
ATOM     71  C   UNL     1     -12.410 -11.804   1.733  1.00  0.00    +0.139 C 
ATOM     72  O   UNL     1     -11.356 -10.445  -0.093  1.00  0.00    -0.342 OA
ATOM     73  C   UNL     1     -11.610 -10.806   2.577  1.00  0.00    +0.167 C 
ATOM     74  C   UNL     1     -10.129 -10.896   0.503  1.00  0.00    +0.178 C 
ATOM     75  C   UNL     1     -10.174 -10.689   2.037  1.00  0.00    +0.176 C 
BRANCH  71  76
ATOM     76  N   UNL     1     -13.741 -12.087   2.331  1.00  0.00    -0.321 NA
ATOM     77  H   UNL     1     -14.298 -12.516   1.583  1.00  0.00    +0.119 HD
ATOM     78  H   UNL     1     -13.626 -12.853   3.014  1.00  0.00    +0.119 HD
ENDBRANCH  71  76
BRANCH  73  79
ATOM     79  O   UNL     1     -11.568 -11.219   3.953  1.00  0.00    -0.388 OA
ATOM     80  H   UNL     1     -10.824 -10.721   4.343  1.00  0.00    +0.211 HD
ENDBRANCH  73  79
BRANCH  74  81
ATOM     81  C   UNL     1      -8.963 -10.183  -0.196  1.00  0.00    +0.191 C 
BRANCH  81  82
ATOM     82  O   UNL     1      -9.325  -9.788  -1.523  1.00  0.00    -0.394 OA
ATOM     83  H   UNL     1      -9.727 -10.567  -1.948  1.00  0.00    +0.210 HD
ENDBRANCH  81  82
ENDBRANCH  74  81
BRANCH  75  84
ATOM     84  O   UNL     1      -9.661  -9.432   2.500  1.00  0.00    -0.388 OA
ATOM     85  H   UNL     1      -9.722  -8.801   1.748  1.00  0.00    +0.211 HD
ENDBRANCH  75  84
ENDBRANCH  69  70
ENDBRANCH  63  69
BRANCH  64  86
ATOM     86  C   UNL     1     -17.294 -11.095  -1.393  1.00  0.00    +0.191 C 
BRANCH  86  87
ATOM     87  O   UNL     1     -17.098 -10.830   0.001  1.00  0.00    -0.394 OA
ATOM     88  H   UNL     1     -16.363 -11.420   0.263  1.00  0.00    +0.210 HD
ENDBRANCH  86  87
ENDBRANCH  64  86
BRANCH  65  89
ATOM     89  O   UNL     1     -15.318 -13.032  -0.316  1.00  0.00    -0.388 OA
ATOM     90  H   UNL     1     -14.783 -13.754  -0.707  1.00  0.00    +0.211 HD
ENDBRANCH  65  89
ENDBRANCH  59  60
ENDBRANCH   5  59
BRANCH   4  91
ATOM     91  N   UNL     1     -12.281  -7.088  -4.880  1.00  0.00    -0.321 NA
ATOM     92  H   UNL     1     -13.191  -6.948  -5.325  1.00  0.00    +0.119 HD
ATOM     93  H   UNL     1     -11.831  -7.881  -5.343  1.00  0.00    +0.119 HD
ENDBRANCH   4  91
TORSDOF 36
ENDMDL
MODEL 2
REMARK VINA RESULT:    -6.655      4.494      8.819
REMARK INTER + INTRA:         -23.992
REMARK INTER:                 -18.460
REMARK INTRA:                  -5.531
REMARK UNBOUND:                -7.221
REMARK SMILES N[C@@H]1[C@@H](O[C@@H]2[C@H](N)[C@H](O[C@@H]3O[C@H](CO)[C@@H](O)[C@H](O[C@@H]4O[C@@H](CO)[C@@H](O)[C@H](O)[C@H]4N)[C@H]3N)O[C@@H](CO[C@H]3O[C@@H](CO)[C@@H](O)[C@H](O)[C@H]3N)[C@H]2O[C@H]2O[C@@H](CO)[C@@H](O)[C@@H](O)[C@H]2N)O[C@H](CO)[C@H](O)[C@H]1O
REMARK SMILES IDX 33 1 47 2 5 3 6 4 8 5 32 6 34 7 35 8 36 9 38 10 41 11 37 12
REMARK SMILES IDX 43 13 45 14 39 15 40 16 42 18 44 20 46 22 48 25 49 26 58 27
REMARK SMILES IDX 50 28 56 29 51 30 54 31 59 32 57 35 52 37 53 38 55 40 4 42
REMARK SMILES IDX 3 43 2 44 60 45 66 46 61 47 64 48 1 49 67 52 62 54 63 55
REMARK SMILES IDX 65 57 9 59 10 60 30 61 11 62 17 63 12 64 15 65 31 66 18 69
REMARK SMILES IDX 19 70 28 71 20 72 26 73 21 74 24 75 29 76 27 79 22 81 23 82
REMARK SMILES IDX 25 84 13 86 14 87 16 89 7 91
REMARK H PARENT 40 17 42 19 44 21 46 23 46 24 59 33 59 34 57 36 53 39 55 41
REMARK H PARENT 1 50 1 51 67 53 63 56 65 58 31 67 31 68 29 77 29 78 27 80
REMARK H PARENT 23 83 25 85 14 88 16 90 7 92 7 93
ROOT
ATOM      1  C   UNL     1      -9.142  -7.533   1.321  1.00  0.00    +0.179 C 
ATOM      2  C   UNL     1     -10.540  -8.061   0.937  1.00  0.00    +0.183 C 
ATOM      3  C   UNL     1     -10.443  -9.394   0.168  1.00  0.00    +0.175 C 
ATOM      4  C   UNL     1      -9.577 -10.397   0.961  1.00  0.00    +0.140 C 
ATOM      5  C   UNL     1      -8.196  -9.745   1.255  1.00  0.00    +0.273 C 
ATOM      6  O   UNL     1      -8.363  -8.541   1.992  1.00  0.00    -0.342 OA
ENDROOT
BRANCH   1   7
ATOM      7  C   UNL     1      -8.380  -6.909   0.127  1.00  0.00    +0.198 C 
BRANCH   7   8
ATOM      8  O   UNL     1      -7.827  -5.636   0.478  1.00  0.00    -0.348 OA
BRANCH   8   9
ATOM      9  C   UNL     1      -8.578  -4.538  -0.061  1.00  0.00    +0.270 C 
ATOM     10  C   UNL     1      -8.438  -2.190  -0.617  1.00  0.00    +0.178 C 
ATOM     11  C   UNL     1      -9.822  -2.477  -1.221  1.00  0.00    +0.176 C 
ATOM     12  O   UNL     1      -7.809  -3.339  -0.032  1.00  0.00    -0.342 OA
ATOM     13  C   UNL     1      -9.814  -3.719  -2.125  1.00  0.00    +0.167 C 
ATOM     14  C   UNL     1      -9.008  -4.890  -1.518  1.00  0.00    +0.139 C 
BRANCH  10  15
ATOM     15  C   UNL     1      -7.437  -1.541  -1.587  1.00  0.00    +0.191 C 
BRANCH  15  16
ATOM     16  O   UNL     1      -6.203  -2.253  -1.629  1.00  0.00    -0.394 OA
ATOM     17  H   UNL     1      -6.149  -2.679  -2.502  1.00  0.00    +0.210 HD
ENDBRANCH  15  16
ENDBRANCH  10  15
BRANCH  11  18
ATOM     18  O   UNL     1     -10.371  -1.360  -1.931  1.00  0.00    -0.388 OA
ATOM     19  H   UNL     1      -9.824  -0.582  -1.715  1.00  0.00    +0.211 HD
ENDBRANCH  11  18
BRANCH  13  20
ATOM     20  O   UNL     1     -11.184  -4.123  -2.328  1.00  0.00    -0.388 OA
ATOM     21  H   UNL     1     -11.587  -3.395  -2.840  1.00  0.00    +0.211 HD
ENDBRANCH  13  20
BRANCH  14  22
ATOM     22  N   UNL     1      -7.821  -5.194  -2.373  1.00  0.00    -0.321 NA
ATOM     23  H   UNL     1      -7.986  -4.695  -3.262  1.00  0.00    +0.119 HD
ATOM     24  H   UNL     1      -7.026  -4.671  -1.964  1.00  0.00    +0.119 HD
ENDBRANCH  14  22
ENDBRANCH   8   9
ENDBRANCH   7   8
ENDBRANCH   1   7
BRANCH   2  25
ATOM     25  O   UNL     1     -11.216  -7.097   0.109  1.00  0.00    -0.342 OA
BRANCH  25  26
ATOM     26  C   UNL     1     -12.470  -6.684   0.667  1.00  0.00    +0.270 C 
ATOM     27  C   UNL     1     -13.549  -6.759  -0.459  1.00  0.00    +0.139 C 
ATOM     28  O   UNL     1     -12.374  -5.359   1.183  1.00  0.00    -0.342 OA
ATOM     29  C   UNL     1     -14.924  -6.268   0.076  1.00  0.00    +0.167 C 
ATOM     30  C   UNL     1     -13.602  -4.805   1.677  1.00  0.00    +0.178 C 
ATOM     31  C   UNL     1     -14.823  -5.733   1.510  1.00  0.00    +0.176 C 
BRANCH  27  32
ATOM     32  N   UNL     1     -13.105  -6.060  -1.693  1.00  0.00    -0.321 NA
ATOM     33  H   UNL     1     -12.120  -6.305  -1.843  1.00  0.00    +0.119 HD
ATOM     34  H   UNL     1     -13.591  -6.506  -2.474  1.00  0.00    +0.119 HD
ENDBRANCH  27  32
BRANCH  29  35
ATOM     35  O   UNL     1     -15.520  -5.238  -0.740  1.00  0.00    -0.388 OA
ATOM     36  H   UNL     1     -14.847  -4.526  -0.769  1.00  0.00    +0.211 HD
ENDBRANCH  29  35
BRANCH  30  37
ATOM     37  C   UNL     1     -13.769  -3.388   1.090  1.00  0.00    +0.191 C 
BRANCH  37  38
ATOM     38  O   UNL     1     -13.105  -3.195  -0.157  1.00  0.00    -0.394 OA
ATOM     39  H   UNL     1     -12.690  -4.054  -0.402  1.00  0.00    +0.210 HD
ENDBRANCH  37  38
ENDBRANCH  30  37
BRANCH  31  40
ATOM     40  O   UNL     1     -16.055  -5.098   1.868  1.00  0.00    -0.388 OA
ATOM     41  H   UNL     1     -16.025  -4.907   2.824  1.00  0.00    +0.211 HD
ENDBRANCH  31  40
ENDBRANCH  25  26
ENDBRANCH   2  25
BRANCH   3  42
ATOM     42  O   UNL     1     -11.787  -9.864  -0.076  1.00  0.00    -0.343 OA
BRANCH  42  43
ATOM     43  C   UNL     1     -11.959 -10.545  -1.324  1.00  0.00    +0.270 C 
ATOM     44  C   UNL     1     -12.398  -9.484  -2.368  1.00  0.00    +0.139 C 
ATOM     45  O   UNL     1     -12.942 -11.568  -1.146  1.00  0.00    -0.342 OA
ATOM     46  C   UNL     1     -12.857 -10.152  -3.671  1.00  0.00    +0.167 C 
ATOM     47  C   UNL     1     -13.340 -12.242  -2.344  1.00  0.00    +0.178 C 
ATOM     48  C   UNL     1     -13.891 -11.242  -3.375  1.00  0.00    +0.176 C 
BRANCH  44  49
ATOM     49  N   UNL     1     -11.313  -8.513  -2.654  1.00  0.00    -0.321 NA
ATOM     50  H   UNL     1     -10.496  -9.034  -2.972  1.00  0.00    +0.119 HD
ATOM     51  H   UNL     1     -11.057  -8.078  -1.762  1.00  0.00    +0.119 HD
ENDBRANCH  44  49
BRANCH  46  52
ATOM     52  O   UNL     1     -13.446  -9.168  -4.541  1.00  0.00    -0.388 OA
ATOM     53  H   UNL     1     -12.846  -8.396  -4.493  1.00  0.00    +0.211 HD
ENDBRANCH  46  52
BRANCH  47  54
ATOM     54  C   UNL     1     -12.228 -13.169  -2.871  1.00  0.00    +0.191 C 
BRANCH  54  55
ATOM     55  O   UNL     1     -12.553 -13.654  -4.170  1.00  0.00    -0.394 OA
ATOM     56  H   UNL     1     -13.526 -13.738  -4.209  1.00  0.00    +0.210 HD
ENDBRANCH  54  55
ENDBRANCH  47  54
BRANCH  48  57
ATOM     57  O   UNL     1     -14.304 -11.837  -4.611  1.00  0.00    -0.388 OA
ATOM     58  H   UNL     1     -13.819 -12.687  -4.710  1.00  0.00    +0.211 HD
ENDBRANCH  48  57
ENDBRANCH  42  43
ENDBRANCH   3  42
BRANCH   5  59
ATOM     59  O   UNL     1      -7.422 -10.684   2.005  1.00  0.00    -0.320 OA
BRANCH  59  60
ATOM     60  C   UNL     1      -6.155 -10.183   2.435  1.00  0.00    +0.273 C 
ATOM     61  C   UNL     1      -6.112  -9.976   3.977  1.00  0.00    +0.140 C 
ATOM     62  O   UNL     1      -5.202 -11.179   2.033  1.00  0.00    -0.342 OA
ATOM     63  C   UNL     1      -4.667  -9.650   4.410  1.00  0.00    +0.174 C 
ATOM     64  C   UNL     1      -3.848 -10.828   2.364  1.00  0.00    +0.178 C 
ATOM     65  C   UNL     1      -3.683 -10.697   3.878  1.00  0.00    +0.176 C 
BRANCH  61  66
ATOM     66  N   UNL     1      -7.011  -8.906   4.453  1.00  0.00    -0.321 NA
ATOM     67  H   UNL     1      -6.901  -8.813   5.472  1.00  0.00    +0.119 HD
ATOM     68  H   UNL     1      -7.985  -9.212   4.314  1.00  0.00    +0.119 HD
ENDBRANCH  61  66
BRANCH  63  69
ATOM     69  O   UNL     1      -4.559  -9.662   5.848  1.00  0.00    -0.343 OA
BRANCH  69  70
ATOM     70  C   UNL     1      -5.041 -10.880   6.423  1.00  0.00    +0.270 C 
ATOM     71  C   UNL     1      -3.967 -11.448   7.397  1.00  0.00    +0.139 C 
ATOM     72  O   UNL     1      -6.307 -10.613   7.047  1.00  0.00    -0.342 OA
ATOM     73  C   UNL     1      -4.696 -12.248   8.481  1.00  0.00    +0.167 C 
ATOM     74  C   UNL     1      -6.180 -10.176   8.410  1.00  0.00    +0.178 C 
ATOM     75  C   UNL     1      -5.623 -11.323   9.288  1.00  0.00    +0.176 C 
BRANCH  71  76
ATOM     76  N   UNL     1      -2.924 -12.262   6.718  1.00  0.00    -0.321 NA
ATOM     77  H   UNL     1      -3.216 -13.240   6.832  1.00  0.00    +0.119 HD
ATOM     78  H   UNL     1      -3.008 -12.103   5.702  1.00  0.00    +0.119 HD
ENDBRANCH  71  76
BRANCH  73  79
ATOM     79  O   UNL     1      -3.757 -12.875   9.371  1.00  0.00    -0.388 OA
ATOM     80  H   UNL     1      -3.496 -13.701   8.920  1.00  0.00    +0.211 HD
ENDBRANCH  73  79
BRANCH  74  81
ATOM     81  C   UNL     1      -7.540  -9.633   8.869  1.00  0.00    +0.191 C 
BRANCH  81  82
ATOM     82  O   UNL     1      -8.596 -10.535   8.523  1.00  0.00    -0.394 OA
ATOM     83  H   UNL     1      -9.429 -10.036   8.606  1.00  0.00    +0.210 HD
ENDBRANCH  81  82
ENDBRANCH  74  81
BRANCH  75  84
ATOM     84  O   UNL     1      -6.613 -12.163   9.898  1.00  0.00    -0.388 OA
ATOM     85  H   UNL     1      -6.807 -11.783  10.785  1.00  0.00    +0.211 HD
ENDBRANCH  75  84
ENDBRANCH  69  70
ENDBRANCH  63  69
BRANCH  64  86
ATOM     86  C   UNL     1      -2.944 -11.924   1.794  1.00  0.00    +0.191 C 
BRANCH  86  87
ATOM     87  O   UNL     1      -2.665 -12.888   2.816  1.00  0.00    -0.394 OA
ATOM     88  H   UNL     1      -3.191 -13.673   2.565  1.00  0.00    +0.210 HD
ENDBRANCH  86  87
ENDBRANCH  64  86
BRANCH  65  89
ATOM     89  O   UNL     1      -2.346 -10.302   4.208  1.00  0.00    -0.388 OA
ATOM     90  H   UNL     1      -2.437  -9.519   4.789  1.00  0.00    +0.211 HD
ENDBRANCH  65  89
ENDBRANCH  59  60
ENDBRANCH   5  59
BRANCH   4  91
ATOM     91  N   UNL     1     -10.274 -10.843   2.193  1.00  0.00    -0.321 NA
ATOM     92  H   UNL     1      -9.580 -11.285   2.800  1.00  0.00    +0.119 HD
ATOM     93  H   UNL     1     -10.949 -11.563   1.925  1.00  0.00    +0.119 HD
ENDBRANCH   4  91
TORSDOF 36
ENDMDL
MODEL 3
REMARK VINA RESULT:    -6.629      2.817      9.996
REMARK INTER + INTRA:         -23.925
REMARK INTER:                 -17.581
REMARK INTRA:                  -6.344
REMARK UNBOUND:                -7.221
REMARK SMILES N[C@@H]1[C@@H](O[C@@H]2[C@H](N)[C@H](O[C@@H]3O[C@H](CO)[C@@H](O)[C@H](O[C@@H]4O[C@@H](CO)[C@@H](O)[C@H](O)[C@H]4N)[C@H]3N)O[C@@H](CO[C@H]3O[C@@H](CO)[C@@H](O)[C@H](O)[C@H]3N)[C@H]2O[C@H]2O[C@@H](CO)[C@@H](O)[C@@H](O)[C@H]2N)O[C@H](CO)[C@H](O)[C@H]1O
REMARK SMILES IDX 33 1 47 2 5 3 6 4 8 5 32 6 34 7 35 8 36 9 38 10 41 11 37 12
REMARK SMILES IDX 43 13 45 14 39 15 40 16 42 18 44 20 46 22 48 25 49 26 58 27
REMARK SMILES IDX 50 28 56 29 51 30 54 31 59 32 57 35 52 37 53 38 55 40 4 42
REMARK SMILES IDX 3 43 2 44 60 45 66 46 61 47 64 48 1 49 67 52 62 54 63 55
REMARK SMILES IDX 65 57 9 59 10 60 30 61 11 62 17 63 12 64 15 65 31 66 18 69
REMARK SMILES IDX 19 70 28 71 20 72 26 73 21 74 24 75 29 76 27 79 22 81 23 82
REMARK SMILES IDX 25 84 13 86 14 87 16 89 7 91
REMARK H PARENT 40 17 42 19 44 21 46 23 46 24 59 33 59 34 57 36 53 39 55 41
REMARK H PARENT 1 50 1 51 67 53 63 56 65 58 31 67 31 68 29 77 29 78 27 80
REMARK H PARENT 23 83 25 85 14 88 16 90 7 92 7 93
ROOT
ATOM      1  C   UNL     1     -10.657  -9.665  -1.454  1.00  0.00    +0.179 C 
ATOM      2  C   UNL     1     -11.284 -10.919  -2.099  1.00  0.00    +0.183 C 
ATOM      3  C   UNL     1     -12.600 -10.576  -2.825  1.00  0.00    +0.175 C 
ATOM      4  C   UNL     1     -12.373  -9.401  -3.801  1.00  0.00    +0.140 C 
ATOM      5  C   UNL     1     -11.764  -8.205  -3.015  1.00  0.00    +0.273 C 
ATOM      6  O   UNL     1     -10.540  -8.587  -2.401  1.00  0.00    -0.342 OA
ENDROOT
BRANCH   1   7
ATOM      7  C   UNL     1     -11.378  -9.225  -0.158  1.00  0.00    +0.198 C 
BRANCH   7   8
ATOM      8  O   UNL     1     -10.680  -8.150   0.479  1.00  0.00    -0.348 OA
BRANCH   8   9
ATOM      9  C   UNL     1      -9.785  -8.602   1.506  1.00  0.00    +0.270 C 
ATOM     10  C   UNL     1      -8.430 -10.479   2.198  1.00  0.00    +0.178 C 
ATOM     11  C   UNL     1      -7.968  -9.470   3.262  1.00  0.00    +0.176 C 
ATOM     12  O   UNL     1      -9.386  -9.949   1.269  1.00  0.00    -0.342 OA
ATOM     13  C   UNL     1      -7.565  -8.121   2.646  1.00  0.00    +0.167 C 
ATOM     14  C   UNL     1      -8.550  -7.652   1.550  1.00  0.00    +0.139 C 
BRANCH  10  15
ATOM     15  C   UNL     1      -7.292 -11.128   1.394  1.00  0.00    +0.191 C 
BRANCH  15  16
ATOM     16  O   UNL     1      -7.471 -10.955  -0.010  1.00  0.00    -0.394 OA
ATOM     17  H   UNL     1      -6.700 -11.357  -0.448  1.00  0.00    +0.210 HD
ENDBRANCH  15  16
ENDBRANCH  10  15
BRANCH  11  18
ATOM     18  O   UNL     1      -6.907  -9.966   4.088  1.00  0.00    -0.388 OA
ATOM     19  H   UNL     1      -6.118 -10.059   3.523  1.00  0.00    +0.211 HD
ENDBRANCH  11  18
BRANCH  13  20
ATOM     20  O   UNL     1      -7.520  -7.149   3.710  1.00  0.00    -0.388 OA
ATOM     21  H   UNL     1      -6.705  -6.637   3.547  1.00  0.00    +0.211 HD
ENDBRANCH  13  20
BRANCH  14  22
ATOM     22  N   UNL     1      -7.859  -7.603   0.226  1.00  0.00    -0.321 NA
ATOM     23  H   UNL     1      -6.853  -7.711   0.435  1.00  0.00    +0.119 HD
ATOM     24  H   UNL     1      -8.087  -8.492  -0.254  1.00  0.00    +0.119 HD
ENDBRANCH  14  22
ENDBRANCH   8   9
ENDBRANCH   7   8
ENDBRANCH   1   7
BRANCH   2  25
ATOM     25  O   UNL     1     -11.558 -11.905  -1.086  1.00  0.00    -0.342 OA
BRANCH  25  26
ATOM     26  C   UNL     1     -10.443 -12.776  -0.860  1.00  0.00    +0.270 C 
ATOM     27  C   UNL     1     -10.678 -14.087  -1.675  1.00  0.00    +0.139 C 
ATOM     28  O   UNL     1     -10.310 -13.066   0.530  1.00  0.00    -0.342 OA
ATOM     29  C   UNL     1      -9.523 -15.095  -1.423  1.00  0.00    +0.167 C 
ATOM     30  C   UNL     1      -9.285 -14.012   0.862  1.00  0.00    +0.178 C 
ATOM     31  C   UNL     1      -8.540 -14.588  -0.360  1.00  0.00    +0.176 C 
BRANCH  27  32
ATOM     32  N   UNL     1     -12.030 -14.653  -1.426  1.00  0.00    -0.321 NA
ATOM     33  H   UNL     1     -11.925 -15.389  -0.720  1.00  0.00    +0.119 HD
ATOM     34  H   UNL     1     -12.568 -13.927  -0.947  1.00  0.00    +0.119 HD
ENDBRANCH  27  32
BRANCH  29  35
ATOM     35  O   UNL     1      -9.982 -16.400  -1.013  1.00  0.00    -0.388 OA
ATOM     36  H   UNL     1     -10.484 -16.237  -0.187  1.00  0.00    +0.211 HD
ENDBRANCH  29  35
BRANCH  30  37
ATOM     37  C   UNL     1      -9.882 -15.062   1.822  1.00  0.00    +0.191 C 
BRANCH  37  38
ATOM     38  O   UNL     1     -11.245 -15.384   1.554  1.00  0.00    -0.394 OA
ATOM     39  H   UNL     1     -11.291 -16.356   1.405  1.00  0.00    +0.210 HD
ENDBRANCH  37  38
ENDBRANCH  30  37
BRANCH  31  40
ATOM     40  O   UNL     1      -7.632 -15.638  -0.012  1.00  0.00    -0.388 OA
ATOM     41  H   UNL     1      -7.266 -16.002  -0.840  1.00  0.00    +0.211 HD
ENDBRANCH  31  40
ENDBRANCH  25  26
ENDBRANCH   2  25
BRANCH   3  42
ATOM     42  O   UNL     1     -13.076 -11.776  -3.473  1.00  0.00    -0.343 OA
BRANCH  42  43
ATOM     43  C   UNL     1     -14.501 -11.862  -3.587  1.00  0.00    +0.270 C 
ATOM     44  C   UNL     1     -14.841 -13.324  -3.982  1.00  0.00    +0.139 C 
ATOM     45  O   UNL     1     -14.930 -10.921  -4.575  1.00  0.00    -0.342 OA
ATOM     46  C   UNL     1     -16.317 -13.456  -4.382  1.00  0.00    +0.167 C 
ATOM     47  C   UNL     1     -16.318 -10.991  -4.917  1.00  0.00    +0.178 C 
ATOM     48  C   UNL     1     -16.684 -12.398  -5.424  1.00  0.00    +0.176 C 
BRANCH  44  49
ATOM     49  N   UNL     1     -14.527 -14.276  -2.888  1.00  0.00    -0.321 NA
ATOM     50  H   UNL     1     -13.756 -13.890  -2.342  1.00  0.00    +0.119 HD
ATOM     51  H   UNL     1     -14.177 -15.133  -3.328  1.00  0.00    +0.119 HD
ENDBRANCH  44  49
BRANCH  46  52
ATOM     52  O   UNL     1     -16.556 -14.764  -4.934  1.00  0.00    -0.388 OA
ATOM     53  H   UNL     1     -16.966 -15.275  -4.207  1.00  0.00    +0.211 HD
ENDBRANCH  46  52
BRANCH  47  54
ATOM     54  C   UNL     1     -17.212 -10.460  -3.781  1.00  0.00    +0.191 C 
BRANCH  54  55
ATOM     55  O   UNL     1     -18.477 -10.047  -4.290  1.00  0.00    -0.394 OA
ATOM     56  H   UNL     1     -19.066 -10.826  -4.257  1.00  0.00    +0.210 HD
ENDBRANCH  54  55
ENDBRANCH  47  54
BRANCH  48  57
ATOM     57  O   UNL     1     -18.062 -12.556  -5.781  1.00  0.00    -0.388 OA
ATOM     58  H   UNL     1     -18.450 -11.657  -5.877  1.00  0.00    +0.211 HD
ENDBRANCH  48  57
ENDBRANCH  42  43
ENDBRANCH   3  42
BRANCH   5  59
ATOM     59  O   UNL     1     -11.544  -7.140  -3.943  1.00  0.00    -0.320 OA
BRANCH  59  60
ATOM     60  C   UNL     1     -11.809  -5.841  -3.412  1.00  0.00    +0.273 C 
ATOM     61  C   UNL     1     -13.094  -5.831  -2.533  1.00  0.00    +0.140 C 
ATOM     62  O   UNL     1     -10.655  -5.515  -2.622  1.00  0.00    -0.342 OA
ATOM     63  C   UNL     1     -13.210  -4.472  -1.812  1.00  0.00    +0.174 C 
ATOM     64  C   UNL     1     -10.734  -4.212  -2.022  1.00  0.00    +0.178 C 
ATOM     65  C   UNL     1     -11.919  -4.135  -1.059  1.00  0.00    +0.176 C 
BRANCH  61  66
ATOM     66  N   UNL     1     -14.333  -6.078  -3.298  1.00  0.00    -0.321 NA
ATOM     67  H   UNL     1     -15.138  -5.940  -2.673  1.00  0.00    +0.119 HD
ATOM     68  H   UNL     1     -14.361  -7.075  -3.559  1.00  0.00    +0.119 HD
ENDBRANCH  61  66
BRANCH  63  69
ATOM     69  O   UNL     1     -14.269  -4.511  -0.834  1.00  0.00    -0.343 OA
BRANCH  69  70
ATOM     70  C   UNL     1     -14.025  -5.470   0.199  1.00  0.00    +0.270 C 
ATOM     71  C   UNL     1     -14.478  -4.877   1.566  1.00  0.00    +0.139 C 
ATOM     72  O   UNL     1     -14.692  -6.692  -0.153  1.00  0.00    -0.342 OA
ATOM     73  C   UNL     1     -14.891  -6.045   2.468  1.00  0.00    +0.167 C 
ATOM     74  C   UNL     1     -16.052  -6.742   0.306  1.00  0.00    +0.178 C 
ATOM     75  C   UNL     1     -16.091  -6.788   1.854  1.00  0.00    +0.176 C 
BRANCH  71  76
ATOM     76  N   UNL     1     -13.447  -4.022   2.211  1.00  0.00    -0.321 NA
ATOM     77  H   UNL     1     -13.323  -3.216   1.588  1.00  0.00    +0.119 HD
ATOM     78  H   UNL     1     -13.863  -3.608   3.060  1.00  0.00    +0.119 HD
ENDBRANCH  71  76
BRANCH  73  79
ATOM     79  O   UNL     1     -15.243  -5.577   3.781  1.00  0.00    -0.388 OA
ATOM     80  H   UNL     1     -15.172  -4.604   3.728  1.00  0.00    +0.211 HD
ENDBRANCH  73  79
BRANCH  74  81
ATOM     81  C   UNL     1     -16.748  -7.926  -0.378  1.00  0.00    +0.191 C 
BRANCH  81  82
ATOM     82  O   UNL     1     -18.154  -7.692  -0.503  1.00  0.00    -0.394 OA
ATOM     83  H   UNL     1     -18.599  -8.331   0.082  1.00  0.00    +0.210 HD
ENDBRANCH  81  82
ENDBRANCH  74  81
BRANCH  75  84
ATOM     84  O   UNL     1     -16.098  -8.103   2.427  1.00  0.00    -0.388 OA
ATOM     85  H   UNL     1     -16.698  -8.654   1.875  1.00  0.00    +0.211 HD
ENDBRANCH  75  84
ENDBRANCH  69  70
ENDBRANCH  63  69
BRANCH  64  86
ATOM     86  C   UNL     1      -9.406  -3.966  -1.300  1.00  0.00    +0.191 C 
BRANCH  86  87
ATOM     87  O   UNL     1      -9.368  -4.746  -0.100  1.00  0.00    -0.394 OA
ATOM     88  H   UNL     1     -10.226  -5.215  -0.082  1.00  0.00    +0.210 HD
ENDBRANCH  86  87
ENDBRANCH  64  86
BRANCH  65  89
ATOM     89  O   UNL     1     -12.026  -2.822  -0.495  1.00  0.00    -0.388 OA
ATOM     90  H   UNL     1     -11.110  -2.480  -0.446  1.00  0.00    +0.211 HD
ENDBRANCH  65  89
ENDBRANCH  59  60
ENDBRANCH   5  59
BRANCH   4  91
ATOM     91  N   UNL     1     -11.530  -9.820  -4.949  1.00  0.00    -0.321 NA
ATOM     92  H   UNL     1     -11.562 -10.841  -5.002  1.00  0.00    +0.119 HD
ATOM     93  H   UNL     1     -10.564  -9.554  -4.740  1.00  0.00    +0.119 HD
ENDBRANCH   4  91
TORSDOF 36
ENDMDL
MODEL 4
REMARK VINA RESULT:    -6.567      2.997      6.623
REMARK INTER + INTRA:         -23.770
REMARK INTER:                 -17.261
REMARK INTRA:                  -6.509
REMARK UNBOUND:                -7.221
REMARK SMILES N[C@@H]1[C@@H](O[C@@H]2[C@H](N)[C@H](O[C@@H]3O[C@H](CO)[C@@H](O)[C@H](O[C@@H]4O[C@@H](CO)[C@@H](O)[C@H](O)[C@H]4N)[C@H]3N)O[C@@H](CO[C@H]3O[C@@H](CO)[C@@H](O)[C@H](O)[C@H]3N)[C@H]2O[C@H]2O[C@@H](CO)[C@@H](O)[C@@H](O)[C@H]2N)O[C@H](CO)[C@H](O)[C@H]1O
REMARK SMILES IDX 33 1 47 2 5 3 6 4 8 5 32 6 34 7 35 8 36 9 38 10 41 11 37 12
REMARK SMILES IDX 43 13 45 14 39 15 40 16 42 18 44 20 46 22 48 25 49 26 58 27
REMARK SMILES IDX 50 28 56 29 51 30 54 31 59 32 57 35 52 37 53 38 55 40 4 42
REMARK SMILES IDX 3 43 2 44 60 45 66 46 61 47 64 48 1 49 67 52 62 54 63 55
REMARK SMILES IDX 65 57 9 59 10 60 30 61 11 62 17 63 12 64 15 65 31 66 18 69
REMARK SMILES IDX 19 70 28 71 20 72 26 73 21 74 24 75 29 76 27 79 22 81 23 82
REMARK SMILES IDX 25 84 13 86 14 87 16 89 7 91
REMARK H PARENT 40 17 42 19 44 21 46 23 46 24 59 33 59 34 57 36 53 39 55 41
REMARK H PARENT 1 50 1 51 67 53 63 56 65 58 31 67 31 68 29 77 29 78 27 80
REMARK H PARENT 23 83 25 85 14 88 16 90 7 92 7 93
ROOT
ATOM      1  C   UNL     1     -12.957  -6.054  -1.568  1.00  0.00    +0.179 C 
ATOM      2  C   UNL     1     -14.371  -5.777  -2.121  1.00  0.00    +0.183 C 
ATOM      3  C   UNL     1     -15.024  -7.066  -2.659  1.00  0.00    +0.175 C 
ATOM      4  C   UNL     1     -14.962  -8.175  -1.586  1.00  0.00    +0.140 C 
ATOM      5  C   UNL     1     -13.484  -8.363  -1.142  1.00  0.00    +0.273 C 
ATOM      6  O   UNL     1     -12.961  -7.144  -0.629  1.00  0.00    -0.342 OA
ENDROOT
BRANCH   1   7
ATOM      7  C   UNL     1     -11.899  -6.249  -2.681  1.00  0.00    +0.198 C 
BRANCH   7   8
ATOM      8  O   UNL     1     -10.692  -6.806  -2.151  1.00  0.00    -0.348 OA
BRANCH   8   9
ATOM      9  C   UNL     1      -9.670  -5.820  -1.945  1.00  0.00    +0.270 C 
ATOM     10  C   UNL     1      -9.195  -3.459  -2.147  1.00  0.00    +0.178 C 
ATOM     11  C   UNL     1      -7.905  -3.882  -1.426  1.00  0.00    +0.176 C 
ATOM     12  O   UNL     1     -10.114  -4.536  -2.376  1.00  0.00    -0.342 OA
ATOM     13  C   UNL     1      -8.189  -4.741  -0.185  1.00  0.00    +0.167 C 
ATOM     14  C   UNL     1      -9.285  -5.801  -0.435  1.00  0.00    +0.139 C 
BRANCH  10  15
ATOM     15  C   UNL     1      -9.962  -2.313  -1.467  1.00  0.00    +0.191 C 
BRANCH  15  16
ATOM     16  O   UNL     1     -11.212  -2.753  -0.941  1.00  0.00    -0.394 OA
ATOM     17  H   UNL     1     -11.481  -2.104  -0.266  1.00  0.00    +0.210 HD
ENDBRANCH  15  16
ENDBRANCH  10  15
BRANCH  11  18
ATOM     18  O   UNL     1      -7.066  -2.775  -1.074  1.00  0.00    -0.388 OA
ATOM     19  H   UNL     1      -6.963  -2.223  -1.871  1.00  0.00    +0.211 HD
ENDBRANCH  11  18
BRANCH  13  20
ATOM     20  O   UNL     1      -6.957  -5.391   0.190  1.00  0.00    -0.388 OA
ATOM     21  H   UNL     1      -6.938  -5.349   1.165  1.00  0.00    +0.211 HD
ENDBRANCH  13  20
BRANCH  14  22
ATOM     22  N   UNL     1     -10.477  -5.519   0.422  1.00  0.00    -0.321 NA
ATOM     23  H   UNL     1     -11.055  -6.374   0.381  1.00  0.00    +0.119 HD
ATOM     24  H   UNL     1     -10.139  -5.521   1.401  1.00  0.00    +0.119 HD
ENDBRANCH  14  22
ENDBRANCH   8   9
ENDBRANCH   7   8
ENDBRANCH   1   7
BRANCH   2  25
ATOM     25  O   UNL     1     -14.299  -4.814  -3.188  1.00  0.00    -0.342 OA
BRANCH  25  26
ATOM     26  C   UNL     1     -14.245  -3.466  -2.703  1.00  0.00    +0.270 C 
ATOM     27  C   UNL     1     -15.641  -3.111  -2.103  1.00  0.00    +0.139 C 
ATOM     28  O   UNL     1     -13.908  -2.570  -3.759  1.00  0.00    -0.342 OA
ATOM     29  C   UNL     1     -15.659  -1.637  -1.610  1.00  0.00    +0.167 C 
ATOM     30  C   UNL     1     -13.924  -1.179  -3.408  1.00  0.00    +0.178 C 
ATOM     31  C   UNL     1     -14.357  -0.902  -1.953  1.00  0.00    +0.176 C 
BRANCH  27  32
ATOM     32  N   UNL     1     -16.743  -3.437  -3.046  1.00  0.00    -0.321 NA
ATOM     33  H   UNL     1     -17.433  -3.992  -2.528  1.00  0.00    +0.119 HD
ATOM     34  H   UNL     1     -17.230  -2.560  -3.243  1.00  0.00    +0.119 HD
ENDBRANCH  27  32
BRANCH  29  35
ATOM     35  O   UNL     1     -16.755  -0.867  -2.145  1.00  0.00    -0.388 OA
ATOM     36  H   UNL     1     -17.244  -1.498  -2.716  1.00  0.00    +0.211 HD
ENDBRANCH  29  35
BRANCH  30  37
ATOM     37  C   UNL     1     -14.718  -0.412  -4.486  1.00  0.00    +0.191 C 
BRANCH  37  38
ATOM     38  O   UNL     1     -15.814  -1.145  -5.030  1.00  0.00    -0.394 OA
ATOM     39  H   UNL     1     -16.174  -1.709  -4.308  1.00  0.00    +0.210 HD
ENDBRANCH  37  38
ENDBRANCH  30  37
BRANCH  31  40
ATOM     40  O   UNL     1     -14.512   0.494  -1.676  1.00  0.00    -0.388 OA
ATOM     41  H   UNL     1     -13.733   0.957  -2.037  1.00  0.00    +0.211 HD
ENDBRANCH  31  40
ENDBRANCH  25  26
ENDBRANCH   2  25
BRANCH   3  42
ATOM     42  O   UNL     1     -16.369  -6.742  -3.073  1.00  0.00    -0.343 OA
BRANCH  42  43
ATOM     43  C   UNL     1     -16.822  -7.461  -4.226  1.00  0.00    +0.270 C 
ATOM     44  C   UNL     1     -16.855  -8.965  -3.844  1.00  0.00    +0.139 C 
ATOM     45  O   UNL     1     -15.920  -7.196  -5.304  1.00  0.00    -0.342 OA
ATOM     46  C   UNL     1     -17.076  -9.842  -5.085  1.00  0.00    +0.167 C 
ATOM     47  C   UNL     1     -16.149  -7.964  -6.490  1.00  0.00    +0.178 C 
ATOM     48  C   UNL     1     -16.080  -9.471  -6.185  1.00  0.00    +0.176 C 
BRANCH  44  49
ATOM     49  N   UNL     1     -17.898  -9.252  -2.830  1.00  0.00    -0.321 NA
ATOM     50  H   UNL     1     -18.719  -8.687  -3.049  1.00  0.00    +0.119 HD
ATOM     51  H   UNL     1     -17.541  -8.917  -1.929  1.00  0.00    +0.119 HD
ENDBRANCH  44  49
BRANCH  46  52
ATOM     52  O   UNL     1     -16.900 -11.228  -4.737  1.00  0.00    -0.388 OA
ATOM     53  H   UNL     1     -17.709 -11.470  -4.242  1.00  0.00    +0.211 HD
ENDBRANCH  46  52
BRANCH  47  54
ATOM     54  C   UNL     1     -17.424  -7.510  -7.224  1.00  0.00    +0.191 C 
BRANCH  54  55
ATOM     55  O   UNL     1     -17.357  -7.852  -8.605  1.00  0.00    -0.394 OA
ATOM     56  H   UNL     1     -17.160  -7.028  -9.094  1.00  0.00    +0.210 HD
ENDBRANCH  54  55
ENDBRANCH  47  54
BRANCH  48  57
ATOM     57  O   UNL     1     -16.308 -10.313  -7.321  1.00  0.00    -0.388 OA
ATOM     58  H   UNL     1     -15.711 -10.011  -8.041  1.00  0.00    +0.211 HD
ENDBRANCH  48  57
ENDBRANCH  42  43
ENDBRANCH   3  42
BRANCH   5  59
ATOM     59  O   UNL     1     -13.457  -9.378  -0.136  1.00  0.00    -0.320 OA
BRANCH  59  60
ATOM     60  C   UNL     1     -12.421 -10.347  -0.313  1.00  0.00    +0.273 C 
ATOM     61  C   UNL     1     -11.181 -10.030   0.573  1.00  0.00    +0.140 C 
ATOM     62  O   UNL     1     -13.008 -11.599   0.071  1.00  0.00    -0.342 OA
ATOM     63  C   UNL     1     -10.192 -11.213   0.512  1.00  0.00    +0.174 C 
ATOM     64  C   UNL     1     -12.108 -12.710  -0.069  1.00  0.00    +0.178 C 
ATOM     65  C   UNL     1     -10.894 -12.535   0.843  1.00  0.00    +0.176 C 
BRANCH  61  66
ATOM     66  N   UNL     1     -10.477  -8.793   0.179  1.00  0.00    -0.321 NA
ATOM     67  H   UNL     1      -9.809  -8.545   0.922  1.00  0.00    +0.119 HD
ATOM     68  H   UNL     1     -11.159  -8.021   0.160  1.00  0.00    +0.119 HD
ENDBRANCH  61  66
BRANCH  63  69
ATOM     69  O   UNL     1      -9.140 -11.040   1.483  1.00  0.00    -0.343 OA
BRANCH  69  70
ATOM     70  C   UNL     1      -7.842 -11.008   0.884  1.00  0.00    +0.270 C 
ATOM     71  C   UNL     1      -7.025  -9.832   1.496  1.00  0.00    +0.139 C 
ATOM     72  O   UNL     1      -7.230 -12.294   1.063  1.00  0.00    -0.342 OA
ATOM     73  C   UNL     1      -5.542 -10.212   1.435  1.00  0.00    +0.167 C 
ATOM     74  C   UNL     1      -6.510 -12.407   2.301  1.00  0.00    +0.178 C 
ATOM     75  C   UNL     1      -5.281 -11.465   2.290  1.00  0.00    +0.176 C 
BRANCH  71  76
ATOM     76  N   UNL     1      -7.285  -8.524   0.839  1.00  0.00    -0.321 NA
ATOM     77  H   UNL     1      -8.304  -8.399   0.860  1.00  0.00    +0.119 HD
ATOM     78  H   UNL     1      -6.939  -7.779   1.464  1.00  0.00    +0.119 HD
ENDBRANCH  71  76
BRANCH  73  79
ATOM     79  O   UNL     1      -4.718  -9.133   1.909  1.00  0.00    -0.388 OA
ATOM     80  H   UNL     1      -3.871  -9.237   1.433  1.00  0.00    +0.211 HD
ENDBRANCH  73  79
BRANCH  74  81
ATOM     81  C   UNL     1      -6.170 -13.886   2.526  1.00  0.00    +0.191 C 
BRANCH  81  82
ATOM     82  O   UNL     1      -5.566 -14.456   1.361  1.00  0.00    -0.394 OA
ATOM     83  H   UNL     1      -5.734 -13.839   0.627  1.00  0.00    +0.210 HD
ENDBRANCH  81  82
ENDBRANCH  74  81
BRANCH  75  84
ATOM     84  O   UNL     1      -4.066 -12.050   1.803  1.00  0.00    -0.388 OA
ATOM     85  H   UNL     1      -4.312 -12.656   1.068  1.00  0.00    +0.211 HD
ENDBRANCH  75  84
ENDBRANCH  69  70
ENDBRANCH  63  69
BRANCH  64  86
ATOM     86  C   UNL     1     -12.894 -13.977   0.279  1.00  0.00    +0.191 C 
BRANCH  86  87
ATOM     87  O   UNL     1     -12.644 -14.329   1.644  1.00  0.00    -0.394 OA
ATOM     88  H   UNL     1     -13.025 -15.225   1.742  1.00  0.00    +0.210 HD
ENDBRANCH  86  87
ENDBRANCH  64  86
BRANCH  65  89
ATOM     89  O   UNL     1      -9.972 -13.618   0.670  1.00  0.00    -0.388 OA
ATOM     90  H   UNL     1     -10.514 -14.384   0.392  1.00  0.00    +0.211 HD
ENDBRANCH  65  89
ENDBRANCH  59  60
ENDBRANCH   5  59
BRANCH   4  91
ATOM     91  N   UNL     1     -15.866  -7.866  -0.450  1.00  0.00    -0.321 NA
ATOM     92  H   UNL     1     -16.708  -7.429  -0.833  1.00  0.00    +0.119 HD
ATOM     93  H   UNL     1     -15.400  -7.170   0.138  1.00  0.00    +0.119 HD
ENDBRANCH   4  91
TORSDOF 36
ENDMDL
MODEL 5
REMARK VINA RESULT:    -6.542      2.374      3.337
REMARK INTER + INTRA:         -23.705
REMARK INTER:                 -16.615
REMARK INTRA:                  -7.091
REMARK UNBOUND:                -7.221
REMARK SMILES N[C@@H]1[C@@H](O[C@@H]2[C@H](N)[C@H](O[C@@H]3O[C@H](CO)[C@@H](O)[C@H](O[C@@H]4O[C@@H](CO)[C@@H](O)[C@H](O)[C@H]4N)[C@H]3N)O[C@@H](CO[C@H]3O[C@@H](CO)[C@@H](O)[C@H](O)[C@H]3N)[C@H]2O[C@H]2O[C@@H](CO)[C@@H](O)[C@@H](O)[C@H]2N)O[C@H](CO)[C@H](O)[C@H]1O
REMARK SMILES IDX 33 1 47 2 5 3 6 4 8 5 32 6 34 7 35 8 36 9 38 10 41 11 37 12
REMARK SMILES IDX 43 13 45 14 39 15 40 16 42 18 44 20 46 22 48 25 49 26 58 27
REMARK SMILES IDX 50 28 56 29 51 30 54 31 59 32 57 35 52 37 53 38 55 40 4 42
REMARK SMILES IDX 3 43 2 44 60 45 66 46 61 47 64 48 1 49 67 52 62 54 63 55
REMARK SMILES IDX 65 57 9 59 10 60 30 61 11 62 17 63 12 64 15 65 31 66 18 69
REMARK SMILES IDX 19 70 28 71 20 72 26 73 21 74 24 75 29 76 27 79 22 81 23 82
REMARK SMILES IDX 25 84 13 86 14 87 16 89 7 91
REMARK H PARENT 40 17 42 19 44 21 46 23 46 24 59 33 59 34 57 36 53 39 55 41
REMARK H PARENT 1 50 1 51 67 53 63 56 65 58 31 67 31 68 29 77 29 78 27 80
REMARK H PARENT 23 83 25 85 14 88 16 90 7 92 7 93
ROOT
ATOM      1  C   UNL     1     -14.652  -7.328  -2.844  1.00  0.00    +0.179 C 
ATOM      2  C   UNL     1     -13.261  -6.679  -3.000  1.00  0.00    +0.183 C 
ATOM      3  C   UNL     1     -12.134  -7.697  -2.729  1.00  0.00    +0.175 C 
ATOM      4  C   UNL     1     -12.351  -8.963  -3.587  1.00  0.00    +0.140 C 
ATOM      5  C   UNL     1     -13.775  -9.521  -3.311  1.00  0.00    +0.273 C 
ATOM      6  O   UNL     1     -14.760  -8.540  -3.613  1.00  0.00    -0.342 OA
ENDROOT
BRANCH   1   7
ATOM      7  C   UNL     1     -15.058  -7.540  -1.365  1.00  0.00    +0.198 C 
BRANCH   7   8
ATOM      8  O   UNL     1     -15.755  -6.399  -0.854  1.00  0.00    -0.348 OA
BRANCH   8   9
ATOM      9  C   UNL     1     -15.959  -6.464   0.565  1.00  0.00    +0.270 C 
ATOM     10  C   UNL     1     -15.942  -7.974   2.452  1.00  0.00    +0.178 C 
ATOM     11  C   UNL     1     -16.133  -6.658   3.225  1.00  0.00    +0.176 C 
ATOM     12  O   UNL     1     -15.830  -7.804   1.032  1.00  0.00    -0.342 OA
ATOM     13  C   UNL     1     -15.122  -5.583   2.797  1.00  0.00    +0.167 C 
ATOM     14  C   UNL     1     -14.928  -5.527   1.265  1.00  0.00    +0.139 C 
BRANCH  10  15
ATOM     15  C   UNL     1     -14.755  -8.828   2.926  1.00  0.00    +0.191 C 
BRANCH  15  16
ATOM     16  O   UNL     1     -13.784  -9.000   1.897  1.00  0.00    -0.394 OA
ATOM     17  H   UNL     1     -13.200  -9.728   2.175  1.00  0.00    +0.210 HD
ENDBRANCH  15  16
ENDBRANCH  10  15
BRANCH  11  18
ATOM     18  O   UNL     1     -16.094  -6.828   4.647  1.00  0.00    -0.388 OA
ATOM     19  H   UNL     1     -15.586  -6.081   5.015  1.00  0.00    +0.211 HD
ENDBRANCH  11  18
BRANCH  13  20
ATOM     20  O   UNL     1     -15.606  -4.311   3.275  1.00  0.00    -0.388 OA
ATOM     21  H   UNL     1     -14.932  -3.664   2.993  1.00  0.00    +0.211 HD
ENDBRANCH  13  20
BRANCH  14  22
ATOM     22  N   UNL     1     -13.526  -5.906   0.910  1.00  0.00    -0.321 NA
ATOM     23  H   UNL     1     -12.981  -5.791   1.780  1.00  0.00    +0.119 HD
ATOM     24  H   UNL     1     -13.528  -6.933   0.779  1.00  0.00    +0.119 HD
ENDBRANCH  14  22
ENDBRANCH   8   9
ENDBRANCH   7   8
ENDBRANCH   1   7
BRANCH   2  25
ATOM     25  O   UNL     1     -13.125  -5.582  -2.078  1.00  0.00    -0.342 OA
BRANCH  25  26
ATOM     26  C   UNL     1     -13.315  -4.311  -2.712  1.00  0.00    +0.270 C 
ATOM     27  C   UNL     1     -12.300  -3.302  -2.088  1.00  0.00    +0.139 C 
ATOM     28  O   UNL     1     -14.653  -3.857  -2.528  1.00  0.00    -0.342 OA
ATOM     29  C   UNL     1     -12.498  -1.888  -2.701  1.00  0.00    +0.167 C 
ATOM     30  C   UNL     1     -14.928  -2.544  -3.038  1.00  0.00    +0.178 C 
ATOM     31  C   UNL     1     -13.701  -1.837  -3.650  1.00  0.00    +0.176 C 
BRANCH  27  32
ATOM     32  N   UNL     1     -12.350  -3.322  -0.603  1.00  0.00    -0.321 NA
ATOM     33  H   UNL     1     -12.673  -4.254  -0.321  1.00  0.00    +0.119 HD
ATOM     34  H   UNL     1     -11.382  -3.287  -0.276  1.00  0.00    +0.119 HD
ENDBRANCH  27  32
BRANCH  29  35
ATOM     35  O   UNL     1     -12.672  -0.854  -1.710  1.00  0.00    -0.388 OA
ATOM     36  H   UNL     1     -12.078  -1.115  -0.975  1.00  0.00    +0.211 HD
ENDBRANCH  29  35
BRANCH  30  37
ATOM     37  C   UNL     1     -15.671  -1.743  -1.948  1.00  0.00    +0.191 C 
BRANCH  37  38
ATOM     38  O   UNL     1     -15.199  -1.990  -0.625  1.00  0.00    -0.394 OA
ATOM     39  H   UNL     1     -15.983  -1.977  -0.029  1.00  0.00    +0.210 HD
ENDBRANCH  37  38
ENDBRANCH  30  37
BRANCH  31  40
ATOM     40  O   UNL     1     -13.967  -0.477  -4.009  1.00  0.00    -0.388 OA
ATOM     41  H   UNL     1     -13.347   0.089  -3.512  1.00  0.00    +0.211 HD
ENDBRANCH  31  40
ENDBRANCH  25  26
ENDBRANCH   2  25
BRANCH   3  42
ATOM     42  O   UNL     1     -10.873  -7.041  -2.981  1.00  0.00    -0.343 OA
BRANCH  42  43
ATOM     43  C   UNL     1      -9.980  -7.025  -1.862  1.00  0.00    +0.270 C 
ATOM     44  C   UNL     1      -9.963  -8.459  -1.270  1.00  0.00    +0.139 C 
ATOM     45  O   UNL     1     -10.455  -6.057  -0.922  1.00  0.00    -0.342 OA
ATOM     46  C   UNL     1      -9.241  -8.486   0.085  1.00  0.00    +0.167 C 
ATOM     47  C   UNL     1      -9.754  -6.028   0.326  1.00  0.00    +0.178 C 
ATOM     48  C   UNL     1      -9.804  -7.406   1.011  1.00  0.00    +0.176 C 
BRANCH  44  49
ATOM     49  N   UNL     1      -9.332  -9.430  -2.197  1.00  0.00    -0.321 NA
ATOM     50  H   UNL     1      -8.358  -9.156  -2.329  1.00  0.00    +0.119 HD
ATOM     51  H   UNL     1      -9.794  -9.321  -3.105  1.00  0.00    +0.119 HD
ENDBRANCH  44  49
BRANCH  46  52
ATOM     52  O   UNL     1      -9.416  -9.774   0.703  1.00  0.00    -0.388 OA
ATOM     53  H   UNL     1      -8.584  -9.935   1.193  1.00  0.00    +0.211 HD
ENDBRANCH  46  52
BRANCH  47  54
ATOM     54  C   UNL     1      -8.342  -5.432   0.172  1.00  0.00    +0.191 C 
BRANCH  54  55
ATOM     55  O   UNL     1      -7.707  -5.314   1.441  1.00  0.00    -0.394 OA
ATOM     56  H   UNL     1      -7.947  -6.110   1.956  1.00  0.00    +0.210 HD
ENDBRANCH  54  55
ENDBRANCH  47  54
BRANCH  48  57
ATOM     57  O   UNL     1      -9.116  -7.465   2.265  1.00  0.00    -0.388 OA
ATOM     58  H   UNL     1      -8.153  -7.379   2.082  1.00  0.00    +0.211 HD
ENDBRANCH  48  57
ENDBRANCH  42  43
ENDBRANCH   3  42
BRANCH   5  59
ATOM     59  O   UNL     1     -13.958 -10.677  -4.130  1.00  0.00    -0.320 OA
BRANCH  59  60
ATOM     60  C   UNL     1     -14.413 -11.830  -3.419  1.00  0.00    +0.273 C 
ATOM     61  C   UNL     1     -13.226 -12.717  -2.942  1.00  0.00    +0.140 C 
ATOM     62  O   UNL     1     -15.141 -11.314  -2.294  1.00  0.00    -0.342 OA
ATOM     63  C   UNL     1     -13.756 -13.817  -1.999  1.00  0.00    +0.174 C 
ATOM     64  C   UNL     1     -15.704 -12.345  -1.467  1.00  0.00    +0.178 C 
ATOM     65  C   UNL     1     -14.599 -13.216  -0.870  1.00  0.00    +0.176 C 
BRANCH  61  66
ATOM     66  N   UNL     1     -12.481 -13.348  -4.049  1.00  0.00    -0.321 NA
ATOM     67  H   UNL     1     -11.733 -12.709  -4.349  1.00  0.00    +0.119 HD
ATOM     68  H   UNL     1     -13.110 -13.429  -4.862  1.00  0.00    +0.119 HD
ENDBRANCH  61  66
BRANCH  63  69
ATOM     69  O   UNL     1     -12.659 -14.518  -1.379  1.00  0.00    -0.343 OA
BRANCH  69  70
ATOM     70  C   UNL     1     -11.428 -13.795  -1.466  1.00  0.00    +0.270 C 
ATOM     71  C   UNL     1     -11.029 -13.290  -0.047  1.00  0.00    +0.139 C 
ATOM     72  O   UNL     1     -10.446 -14.647  -2.076  1.00  0.00    -0.342 OA
ATOM     73  C   UNL     1      -9.501 -13.190  -0.000  1.00  0.00    +0.167 C 
ATOM     74  C   UNL     1      -9.745 -15.465  -1.126  1.00  0.00    +0.178 C 
ATOM     75  C   UNL     1      -8.872 -14.580  -0.201  1.00  0.00    +0.176 C 
BRANCH  71  76
ATOM     76  N   UNL     1     -11.677 -12.007   0.328  1.00  0.00    -0.321 NA
ATOM     77  H   UNL     1     -12.068 -11.626  -0.541  1.00  0.00    +0.119 HD
ATOM     78  H   UNL     1     -12.514 -12.225   0.892  1.00  0.00    +0.119 HD
ENDBRANCH  71  76
BRANCH  73  79
ATOM     79  O   UNL     1      -9.063 -12.647   1.257  1.00  0.00    -0.388 OA
ATOM     80  H   UNL     1      -8.406 -13.288   1.592  1.00  0.00    +0.211 HD
ENDBRANCH  73  79
BRANCH  74  81
ATOM     81  C   UNL     1      -8.960 -16.534  -1.898  1.00  0.00    +0.191 C 
BRANCH  81  82
ATOM     82  O   UNL     1      -8.017 -17.193  -1.048  1.00  0.00    -0.394 OA
ATOM     83  H   UNL     1      -8.402 -17.197  -0.152  1.00  0.00    +0.210 HD
ENDBRANCH  81  82
ENDBRANCH  74  81
BRANCH  75  84
ATOM     84  O   UNL     1      -7.528 -14.363  -0.652  1.00  0.00    -0.388 OA
ATOM     85  H   UNL     1      -7.003 -14.083   0.132  1.00  0.00    +0.211 HD
ENDBRANCH  75  84
ENDBRANCH  69  70
ENDBRANCH  63  69
BRANCH  64  86
ATOM     86  C   UNL     1     -16.525 -11.652  -0.376  1.00  0.00    +0.191 C 
BRANCH  86  87
ATOM     87  O   UNL     1     -15.717 -10.659   0.265  1.00  0.00    -0.394 OA
ATOM     88  H   UNL     1     -15.832 -10.827   1.222  1.00  0.00    +0.210 HD
ENDBRANCH  86  87
ENDBRANCH  64  86
BRANCH  65  89
ATOM     89  O   UNL     1     -15.160 -14.273  -0.082  1.00  0.00    -0.388 OA
ATOM     90  H   UNL     1     -16.007 -13.924   0.264  1.00  0.00    +0.211 HD
ENDBRANCH  65  89
ENDBRANCH  59  60
ENDBRANCH   5  59
BRANCH   4  91
ATOM     91  N   UNL     1     -12.117  -8.676  -5.025  1.00  0.00    -0.321 NA
ATOM     92  H   UNL     1     -11.506  -7.857  -5.083  1.00  0.00    +0.119 HD
ATOM     93  H   UNL     1     -13.016  -8.418  -5.440  1.00  0.00    +0.119 HD
ENDBRANCH   4  91
TORSDOF 36
ENDMDL
MODEL 6
REMARK VINA RESULT:    -6.461      2.905      6.936
REMARK INTER + INTRA:         -23.502
REMARK INTER:                 -16.057
REMARK INTRA:                  -7.445
REMARK UNBOUND:                -7.221
REMARK SMILES N[C@@H]1[C@@H](O[C@@H]2[C@H](N)[C@H](O[C@@H]3O[C@H](CO)[C@@H](O)[C@H](O[C@@H]4O[C@@H](CO)[C@@H](O)[C@H](O)[C@H]4N)[C@H]3N)O[C@@H](CO[C@H]3O[C@@H](CO)[C@@H](O)[C@H](O)[C@H]3N)[C@H]2O[C@H]2O[C@@H](CO)[C@@H](O)[C@@H](O)[C@H]2N)O[C@H](CO)[C@H](O)[C@H]1O
REMARK SMILES IDX 33 1 47 2 5 3 6 4 8 5 32 6 34 7 35 8 36 9 38 10 41 11 37 12
REMARK SMILES IDX 43 13 45 14 39 15 40 16 42 18 44 20 46 22 48 25 49 26 58 27
REMARK SMILES IDX 50 28 56 29 51 30 54 31 59 32 57 35 52 37 53 38 55 40 4 42
REMARK SMILES IDX 3 43 2 44 60 45 66 46 61 47 64 48 1 49 67 52 62 54 63 55
REMARK SMILES IDX 65 57 9 59 10 60 30 61 11 62 17 63 12 64 15 65 31 66 18 69
REMARK SMILES IDX 19 70 28 71 20 72 26 73 21 74 24 75 29 76 27 79 22 81 23 82
REMARK SMILES IDX 25 84 13 86 14 87 16 89 7 91
REMARK H PARENT 40 17 42 19 44 21 46 23 46 24 59 33 59 34 57 36 53 39 55 41
REMARK H PARENT 1 50 1 51 67 53 63 56 65 58 31 67 31 68 29 77 29 78 27 80
REMARK H PARENT 23 83 25 85 14 88 16 90 7 92 7 93
ROOT
ATOM      1  C   UNL     1     -13.393  -6.693  -2.647  1.00  0.00    +0.179 C 
ATOM      2  C   UNL     1     -12.252  -7.716  -2.470  1.00  0.00    +0.183 C 
ATOM      3  C   UNL     1     -12.650  -9.101  -3.021  1.00  0.00    +0.175 C 
ATOM      4  C   UNL     1     -13.166  -8.962  -4.470  1.00  0.00    +0.140 C 
ATOM      5  C   UNL     1     -14.324  -7.925  -4.494  1.00  0.00    +0.273 C 
ATOM      6  O   UNL     1     -13.875  -6.668  -4.004  1.00  0.00    -0.342 OA
ENDROOT
BRANCH   1   7
ATOM      7  C   UNL     1     -14.542  -6.884  -1.627  1.00  0.00    +0.198 C 
BRANCH   7   8
ATOM      8  O   UNL     1     -14.737  -5.701  -0.845  1.00  0.00    -0.348 OA
BRANCH   8   9
ATOM      9  C   UNL     1     -14.140  -4.539  -1.441  1.00  0.00    +0.270 C 
ATOM     10  C   UNL     1     -14.656  -2.477  -2.590  1.00  0.00    +0.178 C 
ATOM     11  C   UNL     1     -13.145  -2.255  -2.408  1.00  0.00    +0.176 C 
ATOM     12  O   UNL     1     -15.136  -3.706  -2.029  1.00  0.00    -0.342 OA
ATOM     13  C   UNL     1     -12.692  -2.506  -0.962  1.00  0.00    +0.167 C 
ATOM     14  C   UNL     1     -13.340  -3.767  -0.347  1.00  0.00    +0.139 C 
BRANCH  10  15
ATOM     15  C   UNL     1     -15.538  -1.334  -2.061  1.00  0.00    +0.191 C 
BRANCH  15  16
ATOM     16  O   UNL     1     -16.237  -1.710  -0.877  1.00  0.00    -0.394 OA
ATOM     17  H   UNL     1     -16.322  -0.909  -0.329  1.00  0.00    +0.210 HD
ENDBRANCH  15  16
ENDBRANCH  10  15
BRANCH  11  18
ATOM     18  O   UNL     1     -12.708  -0.961  -2.840  1.00  0.00    -0.388 OA
ATOM     19  H   UNL     1     -12.219  -1.083  -3.675  1.00  0.00    +0.211 HD
ENDBRANCH  11  18
BRANCH  13  20
ATOM     20  O   UNL     1     -11.257  -2.650  -0.971  1.00  0.00    -0.388 OA
ATOM     21  H   UNL     1     -10.996  -2.616  -0.031  1.00  0.00    +0.211 HD
ENDBRANCH  13  20
BRANCH  14  22
ATOM     22  N   UNL     1     -14.222  -3.386   0.797  1.00  0.00    -0.321 NA
ATOM     23  H   UNL     1     -14.223  -4.203   1.429  1.00  0.00    +0.119 HD
ATOM     24  H   UNL     1     -13.699  -2.679   1.344  1.00  0.00    +0.119 HD
ENDBRANCH  14  22
ENDBRANCH   8   9
ENDBRANCH   7   8
ENDBRANCH   1   7
BRANCH   2  25
ATOM     25  O   UNL     1     -11.926  -7.850  -1.074  1.00  0.00    -0.342 OA
BRANCH  25  26
ATOM     26  C   UNL     1     -11.005  -6.845  -0.632  1.00  0.00    +0.270 C 
ATOM     27  C   UNL     1      -9.913  -6.670  -1.734  1.00  0.00    +0.139 C 
ATOM     28  O   UNL     1     -10.412  -7.224   0.608  1.00  0.00    -0.342 OA
ATOM     29  C   UNL     1      -8.851  -5.628  -1.282  1.00  0.00    +0.167 C 
ATOM     30  C   UNL     1      -9.396  -6.336   1.095  1.00  0.00    +0.178 C 
ATOM     31  C   UNL     1      -9.091  -5.151   0.155  1.00  0.00    +0.176 C 
BRANCH  27  32
ATOM     32  N   UNL     1      -9.332  -7.975  -2.143  1.00  0.00    -0.321 NA
ATOM     33  H   UNL     1      -8.522  -8.151  -1.538  1.00  0.00    +0.119 HD
ATOM     34  H   UNL     1     -10.005  -8.695  -1.868  1.00  0.00    +0.119 HD
ENDBRANCH  27  32
BRANCH  29  35
ATOM     35  O   UNL     1      -7.497  -6.119  -1.365  1.00  0.00    -0.388 OA
ATOM     36  H   UNL     1      -7.474  -6.884  -0.752  1.00  0.00    +0.211 HD
ENDBRANCH  29  35
BRANCH  30  37
ATOM     37  C   UNL     1      -8.171  -7.177   1.509  1.00  0.00    +0.191 C 
BRANCH  37  38
ATOM     38  O   UNL     1      -7.895  -8.270   0.635  1.00  0.00    -0.394 OA
ATOM     39  H   UNL     1      -7.899  -7.915  -0.283  1.00  0.00    +0.210 HD
ENDBRANCH  37  38
ENDBRANCH  30  37
BRANCH  31  40
ATOM     40  O   UNL     1      -7.973  -4.371   0.590  1.00  0.00    -0.388 OA
ATOM     41  H   UNL     1      -7.476  -4.901   1.242  1.00  0.00    +0.211 HD
ENDBRANCH  31  40
ENDBRANCH  25  26
ENDBRANCH   2  25
BRANCH   3  42
ATOM     42  O   UNL     1     -11.505  -9.972  -2.900  1.00  0.00    -0.343 OA
BRANCH  42  43
ATOM     43  C   UNL     1     -11.721 -11.122  -2.073  1.00  0.00    +0.270 C 
ATOM     44  C   UNL     1     -10.427 -11.338  -1.244  1.00  0.00    +0.139 C 
ATOM     45  O   UNL     1     -12.014 -12.236  -2.920  1.00  0.00    -0.342 OA
ATOM     46  C   UNL     1     -10.459 -12.692  -0.520  1.00  0.00    +0.167 C 
ATOM     47  C   UNL     1     -12.106 -13.499  -2.252  1.00  0.00    +0.178 C 
ATOM     48  C   UNL     1     -10.799 -13.814  -1.503  1.00  0.00    +0.176 C 
BRANCH  44  49
ATOM     49  N   UNL     1     -10.212 -10.246  -0.264  1.00  0.00    -0.321 NA
ATOM     50  H   UNL     1     -10.602 -10.542   0.632  1.00  0.00    +0.119 HD
ATOM     51  H   UNL     1     -10.770  -9.447  -0.579  1.00  0.00    +0.119 HD
ENDBRANCH  44  49
BRANCH  46  52
ATOM     52  O   UNL     1      -9.173 -12.957   0.071  1.00  0.00    -0.388 OA
ATOM     53  H   UNL     1      -8.666 -12.128  -0.045  1.00  0.00    +0.211 HD
ENDBRANCH  46  52
BRANCH  47  54
ATOM     54  C   UNL     1     -13.382 -13.599  -1.396  1.00  0.00    +0.191 C 
BRANCH  54  55
ATOM     55  O   UNL     1     -14.254 -14.600  -1.911  1.00  0.00    -0.394 OA
ATOM     56  H   UNL     1     -14.045 -15.431  -1.441  1.00  0.00    +0.210 HD
ENDBRANCH  54  55
ENDBRANCH  47  54
BRANCH  48  57
ATOM     57  O   UNL     1     -10.810 -15.061  -0.797  1.00  0.00    -0.388 OA
ATOM     58  H   UNL     1     -11.610 -15.072  -0.225  1.00  0.00    +0.211 HD
ENDBRANCH  48  57
ENDBRANCH  42  43
ENDBRANCH   3  42
BRANCH   5  59
ATOM     59  O   UNL     1     -14.770  -7.800  -5.847  1.00  0.00    -0.320 OA
BRANCH  59  60
ATOM     60  C   UNL     1     -16.172  -8.013  -6.021  1.00  0.00    +0.273 C 
ATOM     61  C   UNL     1     -16.534  -9.526  -5.958  1.00  0.00    +0.140 C 
ATOM     62  O   UNL     1     -16.797  -7.300  -4.943  1.00  0.00    -0.342 OA
ATOM     63  C   UNL     1     -18.069  -9.684  -5.929  1.00  0.00    +0.174 C 
ATOM     64  C   UNL     1     -18.231  -7.381  -4.972  1.00  0.00    +0.178 C 
ATOM     65  C   UNL     1     -18.690  -8.831  -4.817  1.00  0.00    +0.176 C 
BRANCH  61  66
ATOM     66  N   UNL     1     -15.991 -10.309  -7.085  1.00  0.00    -0.321 NA
ATOM     67  H   UNL     1     -16.631 -10.221  -7.886  1.00  0.00    +0.119 HD
ATOM     68  H   UNL     1     -16.014 -11.308  -6.829  1.00  0.00    +0.119 HD
ENDBRANCH  61  66
BRANCH  63  69
ATOM     69  O   UNL     1     -18.428 -11.054  -5.658  1.00  0.00    -0.343 OA
BRANCH  69  70
ATOM     70  C   UNL     1     -17.939 -11.508  -4.394  1.00  0.00    +0.270 C 
ATOM     71  C   UNL     1     -19.110 -12.151  -3.592  1.00  0.00    +0.139 C 
ATOM     72  O   UNL     1     -16.839 -12.401  -4.629  1.00  0.00    -0.342 OA
ATOM     73  C   UNL     1     -18.513 -13.213  -2.663  1.00  0.00    +0.167 C 
ATOM     74  C   UNL     1     -17.252 -13.765  -4.810  1.00  0.00    +0.178 C 
ATOM     75  C   UNL     1     -17.842 -14.323  -3.491  1.00  0.00    +0.176 C 
BRANCH  71  76
ATOM     76  N   UNL     1     -19.928 -11.161  -2.843  1.00  0.00    -0.321 NA
ATOM     77  H   UNL     1     -20.823 -11.626  -2.651  1.00  0.00    +0.119 HD
ATOM     78  H   UNL     1     -19.510 -11.047  -1.906  1.00  0.00    +0.119 HD
ENDBRANCH  71  76
BRANCH  73  79
ATOM     79  O   UNL     1     -19.530 -13.791  -1.828  1.00  0.00    -0.388 OA
ATOM     80  H   UNL     1     -20.356 -13.341  -2.091  1.00  0.00    +0.211 HD
ENDBRANCH  73  79
BRANCH  74  81
ATOM     81  C   UNL     1     -16.057 -14.561  -5.353  1.00  0.00    +0.191 C 
BRANCH  81  82
ATOM     82  O   UNL     1     -14.879 -14.306  -4.582  1.00  0.00    -0.394 OA
ATOM     83  H   UNL     1     -14.932 -13.380  -4.286  1.00  0.00    +0.210 HD
ENDBRANCH  81  82
ENDBRANCH  74  81
BRANCH  75  84
ATOM     84  O   UNL     1     -16.900 -14.970  -2.625  1.00  0.00    -0.388 OA
ATOM     85  H   UNL     1     -16.114 -15.198  -3.172  1.00  0.00    +0.211 HD
ENDBRANCH  75  84
ENDBRANCH  69  70
ENDBRANCH  63  69
BRANCH  64  86
ATOM     86  C   UNL     1     -18.757  -6.501  -3.835  1.00  0.00    +0.191 C 
BRANCH  86  87
ATOM     87  O   UNL     1     -19.032  -7.319  -2.691  1.00  0.00    -0.394 OA
ATOM     88  H   UNL     1     -18.254  -7.906  -2.615  1.00  0.00    +0.210 HD
ENDBRANCH  86  87
ENDBRANCH  64  86
BRANCH  65  89
ATOM     89  O   UNL     1     -20.118  -8.919  -4.892  1.00  0.00    -0.388 OA
ATOM     90  H   UNL     1     -20.408  -9.256  -4.020  1.00  0.00    +0.211 HD
ENDBRANCH  65  89
ENDBRANCH  59  60
ENDBRANCH   5  59
BRANCH   4  91
ATOM     91  N   UNL     1     -12.061  -8.609  -5.395  1.00  0.00    -0.321 NA
ATOM     92  H   UNL     1     -12.168  -9.178  -6.239  1.00  0.00    +0.119 HD
ATOM     93  H   UNL     1     -11.182  -8.884  -4.950  1.00  0.00    +0.119 HD
ENDBRANCH   4  91
TORSDOF 36
ENDMDL
MODEL 7
REMARK VINA RESULT:    -6.401      3.343      7.131
REMARK INTER + INTRA:         -23.352
REMARK INTER:                 -16.941
REMARK INTRA:                  -6.411
REMARK UNBOUND:                -7.221
REMARK SMILES N[C@@H]1[C@@H](O[C@@H]2[C@H](N)[C@H](O[C@@H]3O[C@H](CO)[C@@H](O)[C@H](O[C@@H]4O[C@@H](CO)[C@@H](O)[C@H](O)[C@H]4N)[C@H]3N)O[C@@H](CO[C@H]3O[C@@H](CO)[C@@H](O)[C@H](O)[C@H]3N)[C@H]2O[C@H]2O[C@@H](CO)[C@@H](O)[C@@H](O)[C@H]2N)O[C@H](CO)[C@H](O)[C@H]1O
REMARK SMILES IDX 33 1 47 2 5 3 6 4 8 5 32 6 34 7 35 8 36 9 38 10 41 11 37 12
REMARK SMILES IDX 43 13 45 14 39 15 40 16 42 18 44 20 46 22 48 25 49 26 58 27
REMARK SMILES IDX 50 28 56 29 51 30 54 31 59 32 57 35 52 37 53 38 55 40 4 42
REMARK SMILES IDX 3 43 2 44 60 45 66 46 61 47 64 48 1 49 67 52 62 54 63 55
REMARK SMILES IDX 65 57 9 59 10 60 30 61 11 62 17 63 12 64 15 65 31 66 18 69
REMARK SMILES IDX 19 70 28 71 20 72 26 73 21 74 24 75 29 76 27 79 22 81 23 82
REMARK SMILES IDX 25 84 13 86 14 87 16 89 7 91
REMARK H PARENT 40 17 42 19 44 21 46 23 46 24 59 33 59 34 57 36 53 39 55 41
REMARK H PARENT 1 50 1 51 67 53 63 56 65 58 31 67 31 68 29 77 29 78 27 80
REMARK H PARENT 23 83 25 85 14 88 16 90 7 92 7 93
ROOT
ATOM      1  C   UNL     1     -12.563  -6.937  -1.182  1.00  0.00    +0.179 C 
ATOM      2  C   UNL     1     -14.010  -7.025  -1.711  1.00  0.00    +0.183 C 
ATOM      3  C   UNL     1     -14.297  -8.409  -2.327  1.00  0.00    +0.175 C 
ATOM      4  C   UNL     1     -13.913  -9.521  -1.327  1.00  0.00    +0.140 C 
ATOM      5  C   UNL     1     -12.431  -9.324  -0.901  1.00  0.00    +0.273 C 
ATOM      6  O   UNL     1     -12.250  -8.042  -0.314  1.00  0.00    -0.342 OA
ENDROOT
BRANCH   1   7
ATOM      7  C   UNL     1     -11.515  -6.768  -2.309  1.00  0.00    +0.198 C 
BRANCH   7   8
ATOM      8  O   UNL     1     -10.222  -7.204  -1.877  1.00  0.00    -0.348 OA
BRANCH   8   9
ATOM      9  C   UNL     1      -9.299  -6.118  -1.709  1.00  0.00    +0.270 C 
ATOM     10  C   UNL     1      -9.042  -3.735  -2.022  1.00  0.00    +0.178 C 
ATOM     11  C   UNL     1      -7.729  -4.001  -1.267  1.00  0.00    +0.176 C 
ATOM     12  O   UNL     1      -9.853  -4.903  -2.207  1.00  0.00    -0.342 OA
ATOM     13  C   UNL     1      -7.952  -4.822   0.012  1.00  0.00    +0.167 C 
ATOM     14  C   UNL     1      -8.941  -5.990  -0.197  1.00  0.00    +0.139 C 
BRANCH  10  15
ATOM     15  C   UNL     1      -9.922  -2.634  -1.408  1.00  0.00    +0.191 C 
BRANCH  15  16
ATOM     16  O   UNL     1     -11.129  -3.164  -0.866  1.00  0.00    -0.394 OA
ATOM     17  H   UNL     1     -11.826  -2.500  -1.018  1.00  0.00    +0.210 HD
ENDBRANCH  15  16
ENDBRANCH  10  15
BRANCH  11  18
ATOM     18  O   UNL     1      -7.002  -2.805  -0.960  1.00  0.00    -0.388 OA
ATOM     19  H   UNL     1      -7.542  -2.051  -1.262  1.00  0.00    +0.211 HD
ENDBRANCH  11  18
BRANCH  13  20
ATOM     20  O   UNL     1      -6.671  -5.335   0.432  1.00  0.00    -0.388 OA
ATOM     21  H   UNL     1      -6.584  -5.061   1.365  1.00  0.00    +0.211 HD
ENDBRANCH  13  20
BRANCH  14  22
ATOM     22  N   UNL     1     -10.168  -5.779   0.631  1.00  0.00    -0.321 NA
ATOM     23  H   UNL     1     -10.439  -4.795   0.477  1.00  0.00    +0.119 HD
ATOM     24  H   UNL     1     -10.929  -6.300   0.160  1.00  0.00    +0.119 HD
ENDBRANCH  14  22
ENDBRANCH   8   9
ENDBRANCH   7   8
ENDBRANCH   1   7
BRANCH   2  25
ATOM     25  O   UNL     1     -14.226  -6.017  -2.715  1.00  0.00    -0.342 OA
BRANCH  25  26
ATOM     26  C   UNL     1     -15.096  -4.973  -2.260  1.00  0.00    +0.270 C 
ATOM     27  C   UNL     1     -14.641  -3.637  -2.928  1.00  0.00    +0.139 C 
ATOM     28  O   UNL     1     -15.047  -4.866  -0.839  1.00  0.00    -0.342 OA
ATOM     29  C   UNL     1     -15.517  -2.455  -2.426  1.00  0.00    +0.167 C 
ATOM     30  C   UNL     1     -15.805  -3.784  -0.281  1.00  0.00    +0.178 C 
ATOM     31  C   UNL     1     -16.499  -2.893  -1.333  1.00  0.00    +0.176 C 
BRANCH  27  32
ATOM     32  N   UNL     1     -13.181  -3.410  -2.762  1.00  0.00    -0.321 NA
ATOM     33  H   UNL     1     -12.721  -4.324  -2.836  1.00  0.00    +0.119 HD
ATOM     34  H   UNL     1     -12.866  -2.907  -3.594  1.00  0.00    +0.119 HD
ENDBRANCH  27  32
BRANCH  29  35
ATOM     35  O   UNL     1     -14.746  -1.349  -1.912  1.00  0.00    -0.388 OA
ATOM     36  H   UNL     1     -14.122  -1.759  -1.276  1.00  0.00    +0.211 HD
ENDBRANCH  29  35
BRANCH  30  37
ATOM     37  C   UNL     1     -14.912  -3.033   0.729  1.00  0.00    +0.191 C 
BRANCH  37  38
ATOM     38  O   UNL     1     -13.528  -3.026   0.386  1.00  0.00    -0.394 OA
ATOM     39  H   UNL     1     -13.021  -3.150   1.221  1.00  0.00    +0.210 HD
ENDBRANCH  37  38
ENDBRANCH  30  37
BRANCH  31  40
ATOM     40  O   UNL     1     -17.118  -1.737  -0.759  1.00  0.00    -0.388 OA
ATOM     41  H   UNL     1     -17.472  -1.195  -1.489  1.00  0.00    +0.211 HD
ENDBRANCH  31  40
ENDBRANCH  25  26
ENDBRANCH   2  25
BRANCH   3  42
ATOM     42  O   UNL     1     -15.688  -8.441  -2.716  1.00  0.00    -0.343 OA
BRANCH  42  43
ATOM     43  C   UNL     1     -15.948  -9.160  -3.928  1.00  0.00    +0.270 C 
ATOM     44  C   UNL     1     -16.288  -8.109  -5.018  1.00  0.00    +0.139 C 
ATOM     45  O   UNL     1     -17.031 -10.063  -3.690  1.00  0.00    -0.342 OA
ATOM     46  C   UNL     1     -16.833  -8.787  -6.283  1.00  0.00    +0.167 C 
ATOM     47  C   UNL     1     -17.514 -10.749  -4.851  1.00  0.00    +0.178 C 
ATOM     48  C   UNL     1     -17.971  -9.746  -5.925  1.00  0.00    +0.176 C 
BRANCH  44  49
ATOM     49  N   UNL     1     -15.112  -7.272  -5.361  1.00  0.00    -0.321 NA
ATOM     50  H   UNL     1     -15.432  -6.496  -5.941  1.00  0.00    +0.119 HD
ATOM     51  H   UNL     1     -14.497  -7.845  -5.948  1.00  0.00    +0.119 HD
ENDBRANCH  44  49
BRANCH  46  52
ATOM     52  O   UNL     1     -17.328  -7.788  -7.194  1.00  0.00    -0.388 OA
ATOM     53  H   UNL     1     -17.108  -8.128  -8.085  1.00  0.00    +0.211 HD
ENDBRANCH  46  52
BRANCH  47  54
ATOM     54  C   UNL     1     -16.513 -11.812  -5.341  1.00  0.00    +0.191 C 
BRANCH  54  55
ATOM     55  O   UNL     1     -17.166 -12.773  -6.165  1.00  0.00    -0.394 OA
ATOM     56  H   UNL     1     -17.154 -13.621  -5.679  1.00  0.00    +0.210 HD
ENDBRANCH  54  55
ENDBRANCH  47  54
BRANCH  48  57
ATOM     57  O   UNL     1     -18.461 -10.352  -7.126  1.00  0.00    -0.388 OA
ATOM     58  H   UNL     1     -19.337  -9.951  -7.328  1.00  0.00    +0.211 HD
ENDBRANCH  48  57
ENDBRANCH  42  43
ENDBRANCH   3  42
BRANCH   5  59
ATOM     59  O   UNL     1     -12.107 -10.352   0.038  1.00  0.00    -0.320 OA
BRANCH  59  60
ATOM     60  C   UNL     1     -10.808 -10.919  -0.144  1.00  0.00    +0.273 C 
ATOM     61  C   UNL     1      -9.869 -10.599   1.057  1.00  0.00    +0.140 C 
ATOM     62  O   UNL     1     -11.027 -12.333  -0.250  1.00  0.00    -0.342 OA
ATOM     63  C   UNL     1      -8.565 -11.412   0.916  1.00  0.00    +0.174 C 
ATOM     64  C   UNL     1      -9.816 -13.076  -0.465  1.00  0.00    +0.178 C 
ATOM     65  C   UNL     1      -8.862 -12.902   0.716  1.00  0.00    +0.176 C 
BRANCH  61  66
ATOM     66  N   UNL     1      -9.533  -9.167   1.177  1.00  0.00    -0.321 NA
ATOM     67  H   UNL     1     -10.358  -8.612   0.911  1.00  0.00    +0.119 HD
ATOM     68  H   UNL     1      -8.816  -8.939   0.472  1.00  0.00    +0.119 HD
ENDBRANCH  61  66
BRANCH  63  69
ATOM     69  O   UNL     1      -7.771 -11.299   2.115  1.00  0.00    -0.343 OA
BRANCH  69  70
ATOM     70  C   UNL     1      -6.501 -10.685   1.875  1.00  0.00    +0.270 C 
ATOM     71  C   UNL     1      -6.115  -9.811   3.104  1.00  0.00    +0.139 C 
ATOM     72  O   UNL     1      -5.550 -11.718   1.575  1.00  0.00    -0.342 OA
ATOM     73  C   UNL     1      -4.585  -9.767   3.183  1.00  0.00    +0.167 C 
ATOM     74  C   UNL     1      -4.918 -12.257   2.748  1.00  0.00    +0.178 C 
ATOM     75  C   UNL     1      -4.026 -11.181   3.415  1.00  0.00    +0.176 C 
BRANCH  71  76
ATOM     76  N   UNL     1      -6.704  -8.446   3.069  1.00  0.00    -0.321 NA
ATOM     77  H   UNL     1      -6.043  -7.870   2.535  1.00  0.00    +0.119 HD
ATOM     78  H   UNL     1      -7.540  -8.476   2.466  1.00  0.00    +0.119 HD
ENDBRANCH  71  76
BRANCH  73  79
ATOM     79  O   UNL     1      -4.153  -8.904   4.249  1.00  0.00    -0.388 OA
ATOM     80  H   UNL     1      -3.279  -9.251   4.515  1.00  0.00    +0.211 HD
ENDBRANCH  73  79
BRANCH  74  81
ATOM     81  C   UNL     1      -4.171 -13.536   2.347  1.00  0.00    +0.191 C 
BRANCH  81  82
ATOM     82  O   UNL     1      -5.021 -14.414   1.602  1.00  0.00    -0.394 OA
ATOM     83  H   UNL     1      -5.778 -14.628   2.177  1.00  0.00    +0.210 HD
ENDBRANCH  81  82
ENDBRANCH  74  81
BRANCH  75  84
ATOM     84  O   UNL     1      -2.660 -11.161   2.977  1.00  0.00    -0.388 OA
ATOM     85  H   UNL     1      -2.104 -11.390   3.755  1.00  0.00    +0.211 HD
ENDBRANCH  75  84
ENDBRANCH  69  70
ENDBRANCH  63  69
BRANCH  64  86
ATOM     86  C   UNL     1     -10.212 -14.543  -0.655  1.00  0.00    +0.191 C 
BRANCH  86  87
ATOM     87  O   UNL     1     -10.634 -14.748  -2.009  1.00  0.00    -0.394 OA
ATOM     88  H   UNL     1     -11.590 -14.540  -2.004  1.00  0.00    +0.210 HD
ENDBRANCH  86  87
ENDBRANCH  64  86
BRANCH  65  89
ATOM     89  O   UNL     1      -7.635 -13.604   0.482  1.00  0.00    -0.388 OA
ATOM     90  H   UNL     1      -7.645 -14.365   1.098  1.00  0.00    +0.211 HD
ENDBRANCH  65  89
ENDBRANCH  59  60
ENDBRANCH   5  59
BRANCH   4  91
ATOM     91  N   UNL     1     -14.844  -9.540  -0.171  1.00  0.00    -0.321 NA
ATOM     92  H   UNL     1     -15.507  -8.771  -0.293  1.00  0.00    +0.119 HD
ATOM     93  H   UNL     1     -14.297  -9.344   0.671  1.00  0.00    +0.119 HD
ENDBRANCH   4  91
TORSDOF 36
ENDMDL
MODEL 8
REMARK VINA RESULT:    -6.358      4.799     11.904
REMARK INTER + INTRA:         -23.244
REMARK INTER:                 -16.834
REMARK INTRA:                  -6.410
REMARK UNBOUND:                -7.221
REMARK SMILES N[C@@H]1[C@@H](O[C@@H]2[C@H](N)[C@H](O[C@@H]3O[C@H](CO)[C@@H](O)[C@H](O[C@@H]4O[C@@H](CO)[C@@H](O)[C@H](O)[C@H]4N)[C@H]3N)O[C@@H](CO[C@H]3O[C@@H](CO)[C@@H](O)[C@H](O)[C@H]3N)[C@H]2O[C@H]2O[C@@H](CO)[C@@H](O)[C@@H](O)[C@H]2N)O[C@H](CO)[C@H](O)[C@H]1O
REMARK SMILES IDX 33 1 47 2 5 3 6 4 8 5 32 6 34 7 35 8 36 9 38 10 41 11 37 12
REMARK SMILES IDX 43 13 45 14 39 15 40 16 42 18 44 20 46 22 48 25 49 26 58 27
REMARK SMILES IDX 50 28 56 29 51 30 54 31 59 32 57 35 52 37 53 38 55 40 4 42
REMARK SMILES IDX 3 43 2 44 60 45 66 46 61 47 64 48 1 49 67 52 62 54 63 55
REMARK SMILES IDX 65 57 9 59 10 60 30 61 11 62 17 63 12 64 15 65 31 66 18 69
REMARK SMILES IDX 19 70 28 71 20 72 26 73 21 74 24 75 29 76 27 79 22 81 23 82
REMARK SMILES IDX 25 84 13 86 14 87 16 89 7 91
REMARK H PARENT 40 17 42 19 44 21 46 23 46 24 59 33 59 34 57 36 53 39 55 41
REMARK H PARENT 1 50 1 51 67 53 63 56 65 58 31 67 31 68 29 77 29 78 27 80
REMARK H PARENT 23 83 25 85 14 88 16 90 7 92 7 93
ROOT
ATOM      1  C   UNL     1      -8.786 -13.390   0.411  1.00  0.00    +0.179 C 
ATOM      2  C   UNL     1      -9.279 -14.846   0.538  1.00  0.00    +0.183 C 
ATOM      3  C   UNL     1     -10.816 -14.927   0.438  1.00  0.00    +0.175 C 
ATOM      4  C   UNL     1     -11.301 -14.196  -0.833  1.00  0.00    +0.140 C 
ATOM      5  C   UNL     1     -10.752 -12.741  -0.816  1.00  0.00    +0.273 C 
ATOM      6  O   UNL     1      -9.332 -12.746  -0.755  1.00  0.00    -0.342 OA
ENDROOT
BRANCH   1   7
ATOM      7  C   UNL     1      -9.017 -12.557   1.696  1.00  0.00    +0.198 C 
BRANCH   7   8
ATOM      8  O   UNL     1      -8.745 -11.171   1.466  1.00  0.00    -0.348 OA
BRANCH   8   9
ATOM      9  C   UNL     1      -7.694 -10.666   2.304  1.00  0.00    +0.270 C 
ATOM     10  C   UNL     1      -5.297 -10.672   2.611  1.00  0.00    +0.178 C 
ATOM     11  C   UNL     1      -5.654  -9.631   3.685  1.00  0.00    +0.176 C 
ATOM     12  O   UNL     1      -6.429 -11.172   1.886  1.00  0.00    -0.342 OA
ATOM     13  C   UNL     1      -6.589  -8.538   3.146  1.00  0.00    +0.167 C 
ATOM     14  C   UNL     1      -7.717  -9.108   2.255  1.00  0.00    +0.139 C 
BRANCH  10  15
ATOM     15  C   UNL     1      -4.246 -10.204   1.591  1.00  0.00    +0.191 C 
BRANCH  15  16
ATOM     16  O   UNL     1      -4.812 -10.014   0.297  1.00  0.00    -0.394 OA
ATOM     17  H   UNL     1      -4.372 -10.643  -0.302  1.00  0.00    +0.210 HD
ENDBRANCH  15  16
ENDBRANCH  10  15
BRANCH  11  18
ATOM     18  O   UNL     1      -4.504  -9.033   4.297  1.00  0.00    -0.388 OA
ATOM     19  H   UNL     1      -4.596  -9.146   5.261  1.00  0.00    +0.211 HD
ENDBRANCH  11  18
BRANCH  13  20
ATOM     20  O   UNL     1      -7.161  -7.852   4.279  1.00  0.00    -0.388 OA
ATOM     21  H   UNL     1      -7.124  -6.906   4.043  1.00  0.00    +0.211 HD
ENDBRANCH  13  20
BRANCH  14  22
ATOM     22  N   UNL     1      -7.566  -8.610   0.855  1.00  0.00    -0.321 NA
ATOM     23  H   UNL     1      -6.579  -8.320   0.769  1.00  0.00    +0.119 HD
ATOM     24  H   UNL     1      -7.611  -9.444   0.243  1.00  0.00    +0.119 HD
ENDBRANCH  14  22
ENDBRANCH   8   9
ENDBRANCH   7   8
ENDBRANCH   1   7
BRANCH   2  25
ATOM     25  O   UNL     1      -8.868 -15.394   1.804  1.00  0.00    -0.342 OA
BRANCH  25  26
ATOM     26  C   UNL     1      -7.975 -16.504   1.653  1.00  0.00    +0.270 C 
ATOM     27  C   UNL     1      -6.580 -16.084   2.213  1.00  0.00    +0.139 C 
ATOM     28  O   UNL     1      -7.874 -16.880   0.281  1.00  0.00    -0.342 OA
ATOM     29  C   UNL     1      -5.552 -17.235   2.024  1.00  0.00    +0.167 C 
ATOM     30  C   UNL     1      -6.927 -17.919   0.001  1.00  0.00    +0.178 C 
ATOM     31  C   UNL     1      -6.146 -18.410   1.238  1.00  0.00    +0.176 C 
BRANCH  27  32
ATOM     32  N   UNL     1      -6.131 -14.784   1.648  1.00  0.00    -0.321 NA
ATOM     33  H   UNL     1      -6.973 -14.260   1.385  1.00  0.00    +0.119 HD
ATOM     34  H   UNL     1      -5.739 -14.247   2.425  1.00  0.00    +0.119 HD
ENDBRANCH  27  32
BRANCH  29  35
ATOM     35  O   UNL     1      -4.345 -16.819   1.353  1.00  0.00    -0.388 OA
ATOM     36  H   UNL     1      -4.197 -17.502   0.665  1.00  0.00    +0.211 HD
ENDBRANCH  29  35
BRANCH  30  37
ATOM     37  C   UNL     1      -6.055 -17.477  -1.192  1.00  0.00    +0.191 C 
BRANCH  37  38
ATOM     38  O   UNL     1      -5.860 -16.066  -1.276  1.00  0.00    -0.394 OA
ATOM     39  H   UNL     1      -6.316 -15.663  -0.503  1.00  0.00    +0.210 HD
ENDBRANCH  37  38
ENDBRANCH  30  37
BRANCH  31  40
ATOM     40  O   UNL     1      -5.105 -19.334   0.906  1.00  0.00    -0.388 OA
ATOM     41  H   UNL     1      -4.333 -18.818   0.606  1.00  0.00    +0.211 HD
ENDBRANCH  31  40
ENDBRANCH  25  26
ENDBRANCH   2  25
BRANCH   3  42
ATOM     42  O   UNL     1     -11.191 -16.321   0.476  1.00  0.00    -0.343 OA
BRANCH  42  43
ATOM     43  C   UNL     1     -12.368 -16.597   1.244  1.00  0.00    +0.270 C 
ATOM     44  C   UNL     1     -11.940 -17.504   2.428  1.00  0.00    +0.139 C 
ATOM     45  O   UNL     1     -13.321 -17.236   0.390  1.00  0.00    -0.342 OA
ATOM     46  C   UNL     1     -13.166 -18.068   3.160  1.00  0.00    +0.167 C 
ATOM     47  C   UNL     1     -14.499 -17.716   1.047  1.00  0.00    +0.178 C 
ATOM     48  C   UNL     1     -14.132 -18.711   2.163  1.00  0.00    +0.176 C 
BRANCH  44  49
ATOM     49  N   UNL     1     -11.068 -16.782   3.386  1.00  0.00    -0.321 NA
ATOM     50  H   UNL     1     -11.162 -17.228   4.299  1.00  0.00    +0.119 HD
ATOM     51  H   UNL     1     -11.446 -15.834   3.480  1.00  0.00    +0.119 HD
ENDBRANCH  44  49
BRANCH  46  52
ATOM     52  O   UNL     1     -12.748 -19.059   4.117  1.00  0.00    -0.388 OA
ATOM     53  H   UNL     1     -13.270 -19.857   3.900  1.00  0.00    +0.211 HD
ENDBRANCH  46  52
BRANCH  47  54
ATOM     54  C   UNL     1     -15.416 -16.560   1.487  1.00  0.00    +0.191 C 
BRANCH  54  55
ATOM     55  O   UNL     1     -16.750 -17.022   1.677  1.00  0.00    -0.394 OA
ATOM     56  H   UNL     1     -17.272 -16.262   1.999  1.00  0.00    +0.210 HD
ENDBRANCH  54  55
ENDBRANCH  47  54
BRANCH  48  57
ATOM     57  O   UNL     1     -15.258 -19.233   2.879  1.00  0.00    -0.388 OA
ATOM     58  H   UNL     1     -15.685 -19.912   2.310  1.00  0.00    +0.211 HD
ENDBRANCH  48  57
ENDBRANCH  42  43
ENDBRANCH   3  42
BRANCH   5  59
ATOM     59  O   UNL     1     -11.197 -12.093  -2.010  1.00  0.00    -0.320 OA
BRANCH  59  60
ATOM     60  C   UNL     1     -11.683 -10.765  -1.806  1.00  0.00    +0.273 C 
ATOM     61  C   UNL     1     -10.570  -9.703  -2.044  1.00  0.00    +0.140 C 
ATOM     62  O   UNL     1     -12.745 -10.604  -2.759  1.00  0.00    -0.342 OA
ATOM     63  C   UNL     1     -11.197  -8.293  -2.029  1.00  0.00    +0.174 C 
ATOM     64  C   UNL     1     -13.381  -9.318  -2.681  1.00  0.00    +0.178 C 
ATOM     65  C   UNL     1     -12.381  -8.205  -2.998  1.00  0.00    +0.176 C 
BRANCH  61  66
ATOM     66  N   UNL     1      -9.482  -9.757  -1.047  1.00  0.00    -0.321 NA
ATOM     67  H   UNL     1      -8.901  -8.914  -1.149  1.00  0.00    +0.119 HD
ATOM     68  H   UNL     1      -8.860 -10.544  -1.286  1.00  0.00    +0.119 HD
ENDBRANCH  61  66
BRANCH  63  69
ATOM     69  O   UNL     1     -10.232  -7.309  -2.454  1.00  0.00    -0.343 OA
BRANCH  69  70
ATOM     70  C   UNL     1      -9.989  -6.313  -1.457  1.00  0.00    +0.270 C 
ATOM     71  C   UNL     1      -8.586  -5.680  -1.697  1.00  0.00    +0.139 C 
ATOM     72  O   UNL     1     -11.067  -5.366  -1.494  1.00  0.00    -0.342 OA
ATOM     73  C   UNL     1      -8.626  -4.243  -1.168  1.00  0.00    +0.167 C 
ATOM     74  C   UNL     1     -10.843  -4.296  -2.427  1.00  0.00    +0.178 C 
ATOM     75  C   UNL     1      -9.658  -3.417  -1.956  1.00  0.00    +0.176 C 
BRANCH  71  76
ATOM     76  N   UNL     1      -7.474  -6.459  -1.092  1.00  0.00    -0.321 NA
ATOM     77  H   UNL     1      -6.659  -5.835  -1.100  1.00  0.00    +0.119 HD
ATOM     78  H   UNL     1      -7.677  -6.575  -0.086  1.00  0.00    +0.119 HD
ENDBRANCH  71  76
BRANCH  73  79
ATOM     79  O   UNL     1      -7.334  -3.622  -1.280  1.00  0.00    -0.388 OA
ATOM     80  H   UNL     1      -7.281  -3.014  -0.517  1.00  0.00    +0.211 HD
ENDBRANCH  73  79
BRANCH  74  81
ATOM     81  C   UNL     1     -12.161  -3.532  -2.609  1.00  0.00    +0.191 C 
BRANCH  81  82
ATOM     82  O   UNL     1     -11.950  -2.304  -3.312  1.00  0.00    -0.394 OA
ATOM     83  H   UNL     1     -11.009  -2.283  -3.564  1.00  0.00    +0.210 HD
ENDBRANCH  81  82
ENDBRANCH  74  81
BRANCH  75  84
ATOM     84  O   UNL     1     -10.014  -2.303  -1.127  1.00  0.00    -0.388 OA
ATOM     85  H   UNL     1     -10.997  -2.263  -1.105  1.00  0.00    +0.211 HD
ENDBRANCH  75  84
ENDBRANCH  69  70
ENDBRANCH  63  69
BRANCH  64  86
ATOM     86  C   UNL     1     -14.544  -9.327  -3.676  1.00  0.00    +0.191 C 
BRANCH  86  87
ATOM     87  O   UNL     1     -15.523  -8.364  -3.270  1.00  0.00    -0.394 OA
ATOM     88  H   UNL     1     -16.089  -8.841  -2.631  1.00  0.00    +0.210 HD
ENDBRANCH  86  87
ENDBRANCH  64  86
BRANCH  65  89
ATOM     89  O   UNL     1     -13.001  -6.920  -2.875  1.00  0.00    -0.388 OA
ATOM     90  H   UNL     1     -13.696  -7.026  -2.194  1.00  0.00    +0.211 HD
ENDBRANCH  65  89
ENDBRANCH  59  60
ENDBRANCH   5  59
BRANCH   4  91
ATOM     91  N   UNL     1     -10.909 -14.940  -2.056  1.00  0.00    -0.321 NA
ATOM     92  H   UNL     1     -11.320 -15.875  -1.995  1.00  0.00    +0.119 HD
ATOM     93  H   UNL     1      -9.892 -15.051  -2.040  1.00  0.00    +0.119 HD
ENDBRANCH   4  91
TORSDOF 36
ENDMDL
MODEL 9
REMARK VINA RESULT:    -6.354      2.737     10.347
REMARK INTER + INTRA:         -23.232
REMARK INTER:                 -17.576
REMARK INTRA:                  -5.657
REMARK UNBOUND:                -7.221
REMARK SMILES N[C@@H]1[C@@H](O[C@@H]2[C@H](N)[C@H](O[C@@H]3O[C@H](CO)[C@@H](O)[C@H](O[C@@H]4O[C@@H](CO)[C@@H](O)[C@H](O)[C@H]4N)[C@H]3N)O[C@@H](CO[C@H]3O[C@@H](CO)[C@@H](O)[C@H](O)[C@H]3N)[C@H]2O[C@H]2O[C@@H](CO)[C@@H](O)[C@@H](O)[C@H]2N)O[C@H](CO)[C@H](O)[C@H]1O
REMARK SMILES IDX 33 1 47 2 5 3 6 4 8 5 32 6 34 7 35 8 36 9 38 10 41 11 37 12
REMARK SMILES IDX 43 13 45 14 39 15 40 16 42 18 44 20 46 22 48 25 49 26 58 27
REMARK SMILES IDX 50 28 56 29 51 30 54 31 59 32 57 35 52 37 53 38 55 40 4 42
REMARK SMILES IDX 3 43 2 44 60 45 66 46 61 47 64 48 1 49 67 52 62 54 63 55
REMARK SMILES IDX 65 57 9 59 10 60 30 61 11 62 17 63 12 64 15 65 31 66 18 69
REMARK SMILES IDX 19 70 28 71 20 72 26 73 21 74 24 75 29 76 27 79 22 81 23 82
REMARK SMILES IDX 25 84 13 86 14 87 16 89 7 91
REMARK H PARENT 40 17 42 19 44 21 46 23 46 24 59 33 59 34 57 36 53 39 55 41
REMARK H PARENT 1 50 1 51 67 53 63 56 65 58 31 67 31 68 29 77 29 78 27 80
REMARK H PARENT 23 83 25 85 14 88 16 90 7 92 7 93
ROOT
ATOM      1  C   UNL     1     -10.783  -9.759  -1.491  1.00  0.00    +0.179 C 
ATOM      2  C   UNL     1     -11.421 -10.975  -2.194  1.00  0.00    +0.183 C 
ATOM      3  C   UNL     1     -12.714 -10.578  -2.936  1.00  0.00    +0.175 C 
ATOM      4  C   UNL     1     -12.440  -9.375  -3.864  1.00  0.00    +0.140 C 
ATOM      5  C   UNL     1     -11.824  -8.221  -3.022  1.00  0.00    +0.273 C 
ATOM      6  O   UNL     1     -10.622  -8.650  -2.395  1.00  0.00    -0.342 OA
ENDROOT
BRANCH   1   7
ATOM      7  C   UNL     1     -11.525  -9.349  -0.196  1.00  0.00    +0.198 C 
BRANCH   7   8
ATOM      8  O   UNL     1     -11.181  -8.016   0.194  1.00  0.00    -0.348 OA
BRANCH   8   9
ATOM      9  C   UNL     1     -10.083  -7.975   1.118  1.00  0.00    +0.270 C 
ATOM     10  C   UNL     1      -8.352  -9.330   2.123  1.00  0.00    +0.178 C 
ATOM     11  C   UNL     1      -7.910  -7.964   2.673  1.00  0.00    +0.176 C 
ATOM     12  O   UNL     1      -9.508  -9.269   1.275  1.00  0.00    -0.342 OA
ATOM     13  C   UNL     1      -7.828  -6.894   1.573  1.00  0.00    +0.167 C 
ATOM     14  C   UNL     1      -9.026  -6.953   0.598  1.00  0.00    +0.139 C 
BRANCH  10  15
ATOM     15  C   UNL     1      -7.254 -10.106   1.378  1.00  0.00    +0.191 C 
BRANCH  15  16
ATOM     16  O   UNL     1      -6.180  -9.256   0.984  1.00  0.00    -0.394 OA
ATOM     17  H   UNL     1      -6.498  -8.726   0.230  1.00  0.00    +0.210 HD
ENDBRANCH  15  16
ENDBRANCH  10  15
BRANCH  11  18
ATOM     18  O   UNL     1      -6.673  -8.019   3.394  1.00  0.00    -0.388 OA
ATOM     19  H   UNL     1      -6.818  -8.583   4.177  1.00  0.00    +0.211 HD
ENDBRANCH  11  18
BRANCH  13  20
ATOM     20  O   UNL     1      -7.786  -5.605   2.218  1.00  0.00    -0.388 OA
ATOM     21  H   UNL     1      -7.979  -5.787   3.157  1.00  0.00    +0.211 HD
ENDBRANCH  13  20
BRANCH  14  22
ATOM     22  N   UNL     1      -8.554  -7.315  -0.773  1.00  0.00    -0.321 NA
ATOM     23  H   UNL     1      -9.352  -7.796  -1.221  1.00  0.00    +0.119 HD
ATOM     24  H   UNL     1      -8.498  -6.428  -1.305  1.00  0.00    +0.119 HD
ENDBRANCH  14  22
ENDBRANCH   8   9
ENDBRANCH   7   8
ENDBRANCH   1   7
BRANCH   2  25
ATOM     25  O   UNL     1     -11.738 -11.991  -1.224  1.00  0.00    -0.342 OA
BRANCH  25  26
ATOM     26  C   UNL     1     -10.598 -12.788  -0.879  1.00  0.00    +0.270 C 
ATOM     27  C   UNL     1     -10.698 -14.138  -1.657  1.00  0.00    +0.139 C 
ATOM     28  O   UNL     1     -10.559 -13.020   0.527  1.00  0.00    -0.342 OA
ATOM     29  C   UNL     1      -9.513 -15.069  -1.277  1.00  0.00    +0.167 C 
ATOM     30  C   UNL     1      -9.513 -13.893   0.973  1.00  0.00    +0.178 C 
ATOM     31  C   UNL     1      -8.645 -14.469  -0.165  1.00  0.00    +0.176 C 
BRANCH  27  32
ATOM     32  N   UNL     1     -12.032 -14.771  -1.488  1.00  0.00    -0.321 NA
ATOM     33  H   UNL     1     -12.694 -14.026  -1.245  1.00  0.00    +0.119 HD
ATOM     34  H   UNL     1     -12.333 -15.074  -2.417  1.00  0.00    +0.119 HD
ENDBRANCH  27  32
BRANCH  29  35
ATOM     35  O   UNL     1      -9.930 -16.383  -0.852  1.00  0.00    -0.388 OA
ATOM     36  H   UNL     1      -9.789 -16.953  -1.637  1.00  0.00    +0.211 HD
ENDBRANCH  29  35
BRANCH  30  37
ATOM     37  C   UNL     1     -10.124 -14.941   1.926  1.00  0.00    +0.191 C 
BRANCH  37  38
ATOM     38  O   UNL     1     -11.440 -15.355   1.565  1.00  0.00    -0.394 OA
ATOM     39  H   UNL     1     -11.347 -16.106   0.936  1.00  0.00    +0.210 HD
ENDBRANCH  37  38
ENDBRANCH  30  37
BRANCH  31  40
ATOM     40  O   UNL     1      -7.711 -15.452   0.293  1.00  0.00    -0.388 OA
ATOM     41  H   UNL     1      -7.611 -16.120  -0.412  1.00  0.00    +0.211 HD
ENDBRANCH  31  40
ENDBRANCH  25  26
ENDBRANCH   2  25
BRANCH   3  42
ATOM     42  O   UNL     1     -13.199 -11.744  -3.637  1.00  0.00    -0.343 OA
BRANCH  42  43
ATOM     43  C   UNL     1     -14.626 -11.852  -3.689  1.00  0.00    +0.270 C 
ATOM     44  C   UNL     1     -14.963 -13.344  -3.952  1.00  0.00    +0.139 C 
ATOM     45  O   UNL     1     -15.103 -10.998  -4.733  1.00  0.00    -0.342 OA
ATOM     46  C   UNL     1     -16.452 -13.521  -4.284  1.00  0.00    +0.167 C 
ATOM     47  C   UNL     1     -16.502 -11.108  -5.016  1.00  0.00    +0.178 C 
ATOM     48  C   UNL     1     -16.869 -12.554  -5.393  1.00  0.00    +0.176 C 
BRANCH  44  49
ATOM     49  N   UNL     1     -14.597 -14.202  -2.798  1.00  0.00    -0.321 NA
ATOM     50  H   UNL     1     -14.146 -15.043  -3.159  1.00  0.00    +0.119 HD
ATOM     51  H   UNL     1     -15.473 -14.502  -2.359  1.00  0.00    +0.119 HD
ENDBRANCH  44  49
BRANCH  46  52
ATOM     52  O   UNL     1     -16.695 -14.871  -4.719  1.00  0.00    -0.388 OA
ATOM     53  H   UNL     1     -16.408 -14.891  -5.655  1.00  0.00    +0.211 HD
ENDBRANCH  46  52
BRANCH  47  54
ATOM     54  C   UNL     1     -17.359 -10.494  -3.893  1.00  0.00    +0.191 C 
BRANCH  54  55
ATOM     55  O   UNL     1     -18.659 -10.170  -4.375  1.00  0.00    -0.394 OA
ATOM     56  H   UNL     1     -19.223 -10.014  -3.592  1.00  0.00    +0.210 HD
ENDBRANCH  54  55
ENDBRANCH  47  54
BRANCH  48  57
ATOM     57  O   UNL     1     -18.258 -12.752  -5.683  1.00  0.00    -0.388 OA
ATOM     58  H   UNL     1     -18.654 -13.241  -4.927  1.00  0.00    +0.211 HD
ENDBRANCH  48  57
ENDBRANCH  42  43
ENDBRANCH   3  42
BRANCH   5  59
ATOM     59  O   UNL     1     -11.561  -7.129  -3.906  1.00  0.00    -0.320 OA
BRANCH  59  60
ATOM     60  C   UNL     1     -11.881  -5.848  -3.360  1.00  0.00    +0.273 C 
ATOM     61  C   UNL     1     -13.139  -5.912  -2.445  1.00  0.00    +0.140 C 
ATOM     62  O   UNL     1     -10.725  -5.463  -2.602  1.00  0.00    -0.342 OA
ATOM     63  C   UNL     1     -13.308  -4.564  -1.713  1.00  0.00    +0.174 C 
ATOM     64  C   UNL     1     -10.857  -4.168  -1.993  1.00  0.00    +0.178 C 
ATOM     65  C   UNL     1     -12.015  -4.160  -0.996  1.00  0.00    +0.176 C 
BRANCH  61  66
ATOM     66  N   UNL     1     -14.384  -6.223  -3.174  1.00  0.00    -0.321 NA
ATOM     67  H   UNL     1     -14.843  -7.022  -2.716  1.00  0.00    +0.119 HD
ATOM     68  H   UNL     1     -14.134  -6.558  -4.117  1.00  0.00    +0.119 HD
ENDBRANCH  61  66
BRANCH  63  69
ATOM     69  O   UNL     1     -14.334  -4.665  -0.704  1.00  0.00    -0.343 OA
BRANCH  69  70
ATOM     70  C   UNL     1     -15.265  -3.581  -0.760  1.00  0.00    +0.270 C 
ATOM     71  C   UNL     1     -16.697  -4.147  -0.996  1.00  0.00    +0.139 C 
ATOM     72  O   UNL     1     -15.137  -2.813   0.446  1.00  0.00    -0.342 OA
ATOM     73  C   UNL     1     -17.695  -3.172  -0.361  1.00  0.00    +0.167 C 
ATOM     74  C   UNL     1     -15.969  -3.298   1.513  1.00  0.00    +0.178 C 
ATOM     75  C   UNL     1     -17.463  -3.093   1.158  1.00  0.00    +0.176 C 
BRANCH  71  76
ATOM     76  N   UNL     1     -17.006  -4.396  -2.428  1.00  0.00    -0.321 NA
ATOM     77  H   UNL     1     -17.130  -5.411  -2.515  1.00  0.00    +0.119 HD
ATOM     78  H   UNL     1     -17.949  -4.021  -2.620  1.00  0.00    +0.119 HD
ENDBRANCH  71  76
BRANCH  73  79
ATOM     79  O   UNL     1     -19.047  -3.589  -0.614  1.00  0.00    -0.388 OA
ATOM     80  H   UNL     1     -19.473  -2.817  -1.034  1.00  0.00    +0.211 HD
ENDBRANCH  73  79
BRANCH  74  81
ATOM     81  C   UNL     1     -15.530  -2.615   2.815  1.00  0.00    +0.191 C 
BRANCH  81  82
ATOM     82  O   UNL     1     -16.341  -3.039   3.915  1.00  0.00    -0.394 OA
ATOM     83  H   UNL     1     -16.875  -3.789   3.597  1.00  0.00    +0.210 HD
ENDBRANCH  81  82
ENDBRANCH  74  81
BRANCH  75  84
ATOM     84  O   UNL     1     -18.031  -1.851   1.597  1.00  0.00    -0.388 OA
ATOM     85  H   UNL     1     -17.408  -1.138   1.327  1.00  0.00    +0.211 HD
ENDBRANCH  75  84
ENDBRANCH  69  70
ENDBRANCH  63  69
BRANCH  64  86
ATOM     86  C   UNL     1      -9.524  -3.853  -1.308  1.00  0.00    +0.191 C 
BRANCH  86  87
ATOM     87  O   UNL     1      -9.515  -2.480  -0.899  1.00  0.00    -0.394 OA
ATOM     88  H   UNL     1     -10.354  -2.362  -0.412  1.00  0.00    +0.210 HD
ENDBRANCH  86  87
ENDBRANCH  64  86
BRANCH  65  89
ATOM     89  O   UNL     1     -12.178  -2.857  -0.422  1.00  0.00    -0.388 OA
ATOM     90  H   UNL     1     -11.933  -2.225  -1.128  1.00  0.00    +0.211 HD
ENDBRANCH  65  89
ENDBRANCH  59  60
ENDBRANCH   5  59
BRANCH   4  91
ATOM     91  N   UNL     1     -11.580  -9.771  -5.008  1.00  0.00    -0.321 NA
ATOM     92  H   UNL     1     -12.191 -10.121  -5.749  1.00  0.00    +0.119 HD
ATOM     93  H   UNL     1     -10.992 -10.550  -4.700  1.00  0.00    +0.119 HD
ENDBRANCH   4  91
TORSDOF 36
ENDMDL
