MODEL 1
REMARK VINA RESULT:    -6.861      0.000      0.000
REMARK INTER + INTRA:         -11.039
REMARK INTER:                 -10.070
REMARK INTRA:                  -0.970
REMARK UNBOUND:                -0.970
REMARK SMILES O=S(=O)(O)OC[C@@H]1O[C@H](O[C@H]2[C@@H]3OC[C@H]2O[C@@H](O)[C@H]3O)[C@@H](O)[C@H](O)[C@@H]1O
REMARK SMILES IDX 9 1 21 2 23 3 25 4 7 5 8 6 10 7 11 8 14 9 15 10 13 11 16 12
REMARK SMILES IDX 12 13 17 14 19 15 18 16 20 18 22 20 24 22 6 24 5 25 2 26
REMARK SMILES IDX 1 27 3 28 4 29 26 31
REMARK H PARENT 18 17 20 19 22 21 24 23 4 30 26 32
ROOT
ATOM      1  C   UNL     1     -11.441  -3.428  -1.547  1.00  0.00    +0.282 C 
ATOM      2  C   UNL     1      -9.978  -3.532  -2.021  1.00  0.00    +0.202 C 
ATOM      3  C   UNL     1      -9.262  -4.535  -1.132  1.00  0.00    +0.179 C 
ATOM      4  C   UNL     1      -9.882  -5.921  -1.332  1.00  0.00    +0.177 C 
ATOM      5  C   UNL     1     -11.414  -5.871  -1.543  1.00  0.00    +0.180 C 
ATOM      6  O   UNL     1     -11.995  -4.647  -1.055  1.00  0.00    -0.341 OA
ENDROOT
BRANCH   1   7
ATOM      7  O   UNL     1     -12.205  -2.850  -2.609  1.00  0.00    -0.341 OA
BRANCH   7   8
ATOM      8  C   UNL     1     -13.603  -2.824  -2.337  1.00  0.00    +0.184 C 
ATOM      9  C   UNL     1     -15.793  -2.110  -2.770  1.00  0.00    +0.195 C 
ATOM     10  C   UNL     1     -14.467  -2.349  -3.495  1.00  0.00    +0.179 C 
ATOM     11  O   UNL     1     -15.440  -1.675  -1.432  1.00  0.00    -0.370 OA
ATOM     12  O   UNL     1     -13.914  -1.156  -4.078  1.00  0.00    -0.342 OA
ATOM     13  C   UNL     1     -13.993  -1.735  -1.345  1.00  0.00    +0.184 C 
ATOM     14  C   UNL     1     -13.787  -0.032  -3.213  1.00  0.00    +0.279 C 
ATOM     15  C   UNL     1     -13.382  -0.391  -1.766  1.00  0.00    +0.202 C 
BRANCH  14  16
ATOM     16  O   UNL     1     -15.016   0.691  -3.219  1.00  0.00    -0.366 OA
ATOM     17  H   UNL     1     -15.611   0.156  -3.774  1.00  0.00    +0.213 HD
ENDBRANCH  14  16
BRANCH  15  18
ATOM     18  O   UNL     1     -13.775   0.642  -0.855  1.00  0.00    -0.385 OA
ATOM     19  H   UNL     1     -14.756   0.612  -0.871  1.00  0.00    +0.211 HD
ENDBRANCH  15  18
ENDBRANCH   7   8
ENDBRANCH   1   7
BRANCH   2  20
ATOM     20  O   UNL     1      -9.308  -2.263  -1.937  1.00  0.00    -0.385 OA
ATOM     21  H   UNL     1      -8.860  -2.251  -1.068  1.00  0.00    +0.211 HD
ENDBRANCH   2  20
BRANCH   3  22
ATOM     22  O   UNL     1      -7.864  -4.589  -1.463  1.00  0.00    -0.387 OA
ATOM     23  H   UNL     1      -7.477  -5.211  -0.812  1.00  0.00    +0.211 HD
ENDBRANCH   3  22
BRANCH   5  24
ATOM     24  C   UNL     1     -11.887  -6.202  -2.970  1.00  0.00    +0.220 C 
BRANCH  24  25
ATOM     25  O   UNL     1     -11.632  -7.582  -3.223  1.00  0.00    -0.245 OA
BRANCH  25  26
ATOM     26  S   UNL     1     -12.532  -8.323  -4.353  1.00  0.00    +0.397 S 
ATOM     27  O   UNL     1     -12.829  -7.404  -5.428  1.00  0.00    -0.169 OA
ATOM     28  O   UNL     1     -13.561  -9.086  -3.685  1.00  0.00    -0.169 OA
BRANCH  26  29
ATOM     29  O   UNL     1     -11.508  -9.427  -4.923  1.00  0.00    -0.264 OA
ATOM     30  H   UNL     1     -11.931 -10.300  -4.796  1.00  0.00    +0.236 HD
ENDBRANCH  26  29
ENDBRANCH  25  26
ENDBRANCH  24  25
ENDBRANCH   5  24
BRANCH   4  31
ATOM     31  O   UNL     1      -9.224  -6.576  -2.422  1.00  0.00    -0.387 OA
ATOM     32  H   UNL     1      -8.699  -5.869  -2.860  1.00  0.00    +0.211 HD
ENDBRANCH   4  31
TORSDOF 11
ENDMDL
MODEL 2
REMARK VINA RESULT:    -6.750      4.844      7.245
REMARK INTER + INTRA:         -10.877
REMARK INTER:                  -9.636
REMARK INTRA:                  -1.241
REMARK UNBOUND:                -0.970
REMARK SMILES O=S(=O)(O)OC[C@@H]1O[C@H](O[C@H]2[C@@H]3OC[C@H]2O[C@@H](O)[C@H]3O)[C@@H](O)[C@H](O)[C@@H]1O
REMARK SMILES IDX 9 1 21 2 23 3 25 4 7 5 8 6 10 7 11 8 14 9 15 10 13 11 16 12
REMARK SMILES IDX 12 13 17 14 19 15 18 16 20 18 22 20 24 22 6 24 5 25 2 26
REMARK SMILES IDX 1 27 3 28 4 29 26 31
REMARK H PARENT 18 17 20 19 22 21 24 23 4 30 26 32
ROOT
ATOM      1  C   UNL     1     -10.269  -6.572  -0.247  1.00  0.00    +0.282 C 
ATOM      2  C   UNL     1      -9.103  -5.825  -0.923  1.00  0.00    +0.202 C 
ATOM      3  C   UNL     1      -8.455  -4.922   0.112  1.00  0.00    +0.179 C 
ATOM      4  C   UNL     1      -7.835  -5.782   1.216  1.00  0.00    +0.177 C 
ATOM      5  C   UNL     1      -8.679  -7.036   1.549  1.00  0.00    +0.180 C 
ATOM      6  O   UNL     1     -10.048  -6.904   1.122  1.00  0.00    -0.341 OA
ENDROOT
BRANCH   1   7
ATOM      7  O   UNL     1     -10.589  -7.708  -1.056  1.00  0.00    -0.341 OA
BRANCH   7   8
ATOM      8  C   UNL     1     -11.907  -7.655  -1.592  1.00  0.00    +0.184 C 
ATOM      9  C   UNL     1     -14.010  -8.589  -2.038  1.00  0.00    +0.195 C 
ATOM     10  C   UNL     1     -12.864  -8.695  -1.030  1.00  0.00    +0.179 C 
ATOM     11  O   UNL     1     -13.391  -8.260  -3.308  1.00  0.00    -0.370 OA
ATOM     12  O   UNL     1     -12.242  -9.992  -1.010  1.00  0.00    -0.342 OA
ATOM     13  C   UNL     1     -11.973  -8.099  -3.048  1.00  0.00    +0.184 C 
ATOM     14  C   UNL     1     -11.817 -10.507  -2.268  1.00  0.00    +0.279 C 
ATOM     15  C   UNL     1     -11.246  -9.439  -3.227  1.00  0.00    +0.202 C 
BRANCH  14  16
ATOM     16  O   UNL     1     -12.913 -11.186  -2.877  1.00  0.00    -0.366 OA
ATOM     17  H   UNL     1     -12.678 -12.129  -2.819  1.00  0.00    +0.213 HD
ENDBRANCH  14  16
BRANCH  15  18
ATOM     18  O   UNL     1     -11.336  -9.876  -4.589  1.00  0.00    -0.385 OA
ATOM     19  H   UNL     1     -11.300  -9.044  -5.108  1.00  0.00    +0.211 HD
ENDBRANCH  15  18
ENDBRANCH   7   8
ENDBRANCH   1   7
BRANCH   2  20
ATOM     20  O   UNL     1      -9.562  -5.025  -2.027  1.00  0.00    -0.385 OA
ATOM     21  H   UNL     1      -8.784  -4.521  -2.337  1.00  0.00    +0.211 HD
ENDBRANCH   2  20
BRANCH   3  22
ATOM     22  O   UNL     1      -7.429  -4.119  -0.495  1.00  0.00    -0.387 OA
ATOM     23  H   UNL     1      -6.589  -4.572  -0.268  1.00  0.00    +0.211 HD
ENDBRANCH   3  22
BRANCH   5  24
ATOM     24  C   UNL     1      -8.065  -8.374   1.100  1.00  0.00    +0.220 C 
BRANCH  24  25
ATOM     25  O   UNL     1      -7.262  -8.882   2.163  1.00  0.00    -0.245 OA
BRANCH  25  26
ATOM     26  S   UNL     1      -5.934  -9.730   1.769  1.00  0.00    +0.397 S 
ATOM     27  O   UNL     1      -6.309 -10.931   1.058  1.00  0.00    -0.169 OA
ATOM     28  O   UNL     1      -5.056  -9.757   2.917  1.00  0.00    -0.169 OA
BRANCH  26  29
ATOM     29  O   UNL     1      -5.209  -8.747   0.721  1.00  0.00    -0.264 OA
ATOM     30  H   UNL     1      -4.256  -8.971   0.733  1.00  0.00    +0.236 HD
ENDBRANCH  26  29
ENDBRANCH  25  26
ENDBRANCH  24  25
ENDBRANCH   5  24
BRANCH   4  31
ATOM     31  O   UNL     1      -6.499  -6.135   0.841  1.00  0.00    -0.387 OA
ATOM     32  H   UNL     1      -6.593  -6.976   0.339  1.00  0.00    +0.211 HD
ENDBRANCH   4  31
TORSDOF 11
ENDMDL
MODEL 3
REMARK VINA RESULT:    -6.747      0.931      1.945
REMARK INTER + INTRA:         -10.871
REMARK INTER:                  -9.949
REMARK INTRA:                  -0.923
REMARK UNBOUND:                -0.970
REMARK SMILES O=S(=O)(O)OC[C@@H]1O[C@H](O[C@H]2[C@@H]3OC[C@H]2O[C@@H](O)[C@H]3O)[C@@H](O)[C@H](O)[C@@H]1O
REMARK SMILES IDX 9 1 21 2 23 3 25 4 7 5 8 6 10 7 11 8 14 9 15 10 13 11 16 12
REMARK SMILES IDX 12 13 17 14 19 15 18 16 20 18 22 20 24 22 6 24 5 25 2 26
REMARK SMILES IDX 1 27 3 28 4 29 26 31
REMARK H PARENT 18 17 20 19 22 21 24 23 4 30 26 32
ROOT
ATOM      1  C   UNL     1     -11.321  -3.862  -1.682  1.00  0.00    +0.282 C 
ATOM      2  C   UNL     1      -9.903  -4.110  -2.230  1.00  0.00    +0.202 C 
ATOM      3  C   UNL     1      -9.190  -5.063  -1.286  1.00  0.00    +0.179 C 
ATOM      4  C   UNL     1      -9.903  -6.418  -1.301  1.00  0.00    +0.177 C 
ATOM      5  C   UNL     1     -11.440  -6.288  -1.422  1.00  0.00    +0.180 C 
ATOM      6  O   UNL     1     -11.913  -4.985  -1.032  1.00  0.00    -0.341 OA
ENDROOT
BRANCH   1   7
ATOM      7  O   UNL     1     -12.120  -3.345  -2.750  1.00  0.00    -0.341 OA
BRANCH   7   8
ATOM      8  C   UNL     1     -12.394  -1.955  -2.617  1.00  0.00    +0.184 C 
ATOM      9  C   UNL     1     -13.515  -0.139  -1.646  1.00  0.00    +0.195 C 
ATOM     10  C   UNL     1     -13.061  -1.560  -1.308  1.00  0.00    +0.179 C 
ATOM     11  O   UNL     1     -13.830  -0.151  -3.062  1.00  0.00    -0.370 OA
ATOM     12  O   UNL     1     -14.151  -2.451  -1.011  1.00  0.00    -0.342 OA
ATOM     13  C   UNL     1     -13.502  -1.477  -3.549  1.00  0.00    +0.184 C 
ATOM     14  C   UNL     1     -15.201  -2.503  -1.971  1.00  0.00    +0.279 C 
ATOM     15  C   UNL     1     -14.723  -2.400  -3.436  1.00  0.00    +0.202 C 
BRANCH  14  16
ATOM     16  O   UNL     1     -16.138  -1.469  -1.681  1.00  0.00    -0.366 OA
ATOM     17  H   UNL     1     -16.956  -1.747  -2.130  1.00  0.00    +0.213 HD
ENDBRANCH  14  16
BRANCH  15  18
ATOM     18  O   UNL     1     -15.779  -1.934  -4.286  1.00  0.00    -0.385 OA
ATOM     19  H   UNL     1     -15.554  -0.992  -4.448  1.00  0.00    +0.211 HD
ENDBRANCH  15  18
ENDBRANCH   7   8
ENDBRANCH   1   7
BRANCH   2  20
ATOM     20  O   UNL     1      -9.153  -2.886  -2.322  1.00  0.00    -0.385 OA
ATOM     21  H   UNL     1      -9.737  -2.245  -2.773  1.00  0.00    +0.211 HD
ENDBRANCH   2  20
BRANCH   3  22
ATOM     22  O   UNL     1      -7.823  -5.243  -1.694  1.00  0.00    -0.387 OA
ATOM     23  H   UNL     1      -7.470  -5.929  -1.089  1.00  0.00    +0.211 HD
ENDBRANCH   3  22
BRANCH   5  24
ATOM     24  C   UNL     1     -12.027  -6.730  -2.775  1.00  0.00    +0.220 C 
BRANCH  24  25
ATOM     25  O   UNL     1     -11.927  -8.149  -2.870  1.00  0.00    -0.245 OA
BRANCH  25  26
ATOM     26  S   UNL     1     -12.484  -8.858  -4.220  1.00  0.00    +0.397 S 
ATOM     27  O   UNL     1     -12.622  -7.877  -5.272  1.00  0.00    -0.169 OA
ATOM     28  O   UNL     1     -13.560  -9.751  -3.853  1.00  0.00    -0.169 OA
BRANCH  26  29
ATOM     29  O   UNL     1     -11.262  -9.829  -4.615  1.00  0.00    -0.264 OA
ATOM     30  H   UNL     1     -11.596 -10.444  -5.300  1.00  0.00    +0.236 HD
ENDBRANCH  26  29
ENDBRANCH  25  26
ENDBRANCH  24  25
ENDBRANCH   5  24
BRANCH   4  31
ATOM     31  O   UNL     1      -9.360  -7.222  -2.354  1.00  0.00    -0.387 OA
ATOM     32  H   UNL     1      -8.400  -7.012  -2.361  1.00  0.00    +0.211 HD
ENDBRANCH   4  31
TORSDOF 11
ENDMDL
MODEL 4
REMARK VINA RESULT:    -6.655      4.198      7.169
REMARK INTER + INTRA:         -10.738
REMARK INTER:                  -9.797
REMARK INTRA:                  -0.940
REMARK UNBOUND:                -0.970
REMARK SMILES O=S(=O)(O)OC[C@@H]1O[C@H](O[C@H]2[C@@H]3OC[C@H]2O[C@@H](O)[C@H]3O)[C@@H](O)[C@H](O)[C@@H]1O
REMARK SMILES IDX 9 1 21 2 23 3 25 4 7 5 8 6 10 7 11 8 14 9 15 10 13 11 16 12
REMARK SMILES IDX 12 13 17 14 19 15 18 16 20 18 22 20 24 22 6 24 5 25 2 26
REMARK SMILES IDX 1 27 3 28 4 29 26 31
REMARK H PARENT 18 17 20 19 22 21 24 23 4 30 26 32
ROOT
ATOM      1  C   UNL     1      -9.429  -8.187  -0.462  1.00  0.00    +0.282 C 
ATOM      2  C   UNL     1      -9.020  -8.054   1.018  1.00  0.00    +0.202 C 
ATOM      3  C   UNL     1      -7.559  -7.640   1.072  1.00  0.00    +0.179 C 
ATOM      4  C   UNL     1      -7.405  -6.248   0.453  1.00  0.00    +0.177 C 
ATOM      5  C   UNL     1      -8.339  -6.021  -0.760  1.00  0.00    +0.180 C 
ATOM      6  O   UNL     1      -8.796  -7.258  -1.339  1.00  0.00    -0.341 OA
ENDROOT
BRANCH   1   7
ATOM      7  O   UNL     1     -10.857  -8.140  -0.528  1.00  0.00    -0.341 OA
BRANCH   7   8
ATOM      8  C   UNL     1     -11.443  -9.414  -0.772  1.00  0.00    +0.184 C 
ATOM      9  C   UNL     1     -11.924 -11.254  -2.142  1.00  0.00    +0.195 C 
ATOM     10  C   UNL     1     -10.871 -10.160  -1.967  1.00  0.00    +0.179 C 
ATOM     11  O   UNL     1     -13.185 -10.659  -1.739  1.00  0.00    -0.370 OA
ATOM     12  O   UNL     1     -10.767  -9.283  -3.103  1.00  0.00    -0.342 OA
ATOM     13  C   UNL     1     -12.879  -9.318  -1.274  1.00  0.00    +0.184 C 
ATOM     14  C   UNL     1     -11.982  -8.703  -3.565  1.00  0.00    +0.279 C 
ATOM     15  C   UNL     1     -12.968  -8.322  -2.438  1.00  0.00    +0.202 C 
BRANCH  14  16
ATOM     16  O   UNL     1     -12.600  -9.604  -4.481  1.00  0.00    -0.366 OA
ATOM     17  H   UNL     1     -11.857 -10.012  -4.960  1.00  0.00    +0.213 HD
ENDBRANCH  14  16
BRANCH  15  18
ATOM     18  O   UNL     1     -14.310  -8.255  -2.936  1.00  0.00    -0.385 OA
ATOM     19  H   UNL     1     -14.656  -9.165  -2.806  1.00  0.00    +0.211 HD
ENDBRANCH  15  18
ENDBRANCH   7   8
ENDBRANCH   1   7
BRANCH   2  20
ATOM     20  O   UNL     1      -9.185  -9.296   1.723  1.00  0.00    -0.385 OA
ATOM     21  H   UNL     1      -9.685  -9.082   2.535  1.00  0.00    +0.211 HD
ENDBRANCH   2  20
BRANCH   3  22
ATOM     22  O   UNL     1      -7.097  -7.607   2.432  1.00  0.00    -0.387 OA
ATOM     23  H   UNL     1      -6.666  -6.732   2.529  1.00  0.00    +0.211 HD
ENDBRANCH   3  22
BRANCH   5  24
ATOM     24  C   UNL     1      -9.499  -5.039  -0.516  1.00  0.00    +0.220 C 
BRANCH  24  25
ATOM     25  O   UNL     1      -9.592  -4.161  -1.635  1.00  0.00    -0.245 OA
BRANCH  25  26
ATOM     26  S   UNL     1      -8.790  -2.752  -1.562  1.00  0.00    +0.397 S 
ATOM     27  O   UNL     1      -9.716  -1.649  -1.681  1.00  0.00    -0.169 OA
ATOM     28  O   UNL     1      -7.609  -2.858  -2.389  1.00  0.00    -0.169 OA
BRANCH  26  29
ATOM     29  O   UNL     1      -8.234  -2.763  -0.051  1.00  0.00    -0.264 OA
ATOM     30  H   UNL     1      -8.944  -3.135   0.511  1.00  0.00    +0.236 HD
ENDBRANCH  26  29
ENDBRANCH  25  26
ENDBRANCH  24  25
ENDBRANCH   5  24
BRANCH   4  31
ATOM     31  O   UNL     1      -7.613  -5.258   1.466  1.00  0.00    -0.387 OA
ATOM     32  H   UNL     1      -7.628  -5.762   2.311  1.00  0.00    +0.211 HD
ENDBRANCH   4  31
TORSDOF 11
ENDMDL
MODEL 5
REMARK VINA RESULT:    -6.622      3.011      7.230
REMARK INTER + INTRA:         -10.689
REMARK INTER:                  -9.507
REMARK INTRA:                  -1.182
REMARK UNBOUND:                -0.970
REMARK SMILES O=S(=O)(O)OC[C@@H]1O[C@H](O[C@H]2[C@@H]3OC[C@H]2O[C@@H](O)[C@H]3O)[C@@H](O)[C@H](O)[C@@H]1O
REMARK SMILES IDX 9 1 21 2 23 3 25 4 7 5 8 6 10 7 11 8 14 9 15 10 13 11 16 12
REMARK SMILES IDX 12 13 17 14 19 15 18 16 20 18 22 20 24 22 6 24 5 25 2 26
REMARK SMILES IDX 1 27 3 28 4 29 26 31
REMARK H PARENT 18 17 20 19 22 21 24 23 4 30 26 32
ROOT
ATOM      1  C   UNL     1     -12.215  -4.197  -1.343  1.00  0.00    +0.282 C 
ATOM      2  C   UNL     1     -11.823  -2.707  -1.370  1.00  0.00    +0.202 C 
ATOM      3  C   UNL     1     -12.983  -1.922  -1.960  1.00  0.00    +0.179 C 
ATOM      4  C   UNL     1     -14.194  -2.034  -1.029  1.00  0.00    +0.177 C 
ATOM      5  C   UNL     1     -14.321  -3.429  -0.371  1.00  0.00    +0.180 C 
ATOM      6  O   UNL     1     -13.597  -4.444  -1.092  1.00  0.00    -0.341 OA
ENDROOT
BRANCH   1   7
ATOM      7  O   UNL     1     -11.349  -4.860  -0.418  1.00  0.00    -0.341 OA
BRANCH   7   8
ATOM      8  C   UNL     1     -10.976  -6.166  -0.845  1.00  0.00    +0.184 C 
ATOM      9  C   UNL     1      -9.731  -8.143  -0.649  1.00  0.00    +0.195 C 
ATOM     10  C   UNL     1     -10.286  -7.010   0.215  1.00  0.00    +0.179 C 
ATOM     11  O   UNL     1      -9.414  -7.543  -1.932  1.00  0.00    -0.370 OA
ATOM     12  O   UNL     1      -9.263  -6.246   0.878  1.00  0.00    -0.342 OA
ATOM     13  C   UNL     1      -9.835  -6.157  -1.856  1.00  0.00    +0.184 C 
ATOM     14  C   UNL     1      -8.217  -5.744   0.053  1.00  0.00    +0.279 C 
ATOM     15  C   UNL     1      -8.683  -5.280  -1.345  1.00  0.00    +0.202 C 
BRANCH  14  16
ATOM     16  O   UNL     1      -7.210  -6.746  -0.066  1.00  0.00    -0.366 OA
ATOM     17  H   UNL     1      -6.370  -6.255  -0.013  1.00  0.00    +0.213 HD
ENDBRANCH  14  16
BRANCH  15  18
ATOM     18  O   UNL     1      -7.594  -5.297  -2.277  1.00  0.00    -0.385 OA
ATOM     19  H   UNL     1      -7.603  -4.396  -2.667  1.00  0.00    +0.211 HD
ENDBRANCH  15  18
ENDBRANCH   7   8
ENDBRANCH   1   7
BRANCH   2  20
ATOM     20  O   UNL     1     -10.649  -2.487  -2.171  1.00  0.00    -0.385 OA
ATOM     21  H   UNL     1     -10.755  -3.046  -2.966  1.00  0.00    +0.211 HD
ENDBRANCH   2  20
BRANCH   3  22
ATOM     22  O   UNL     1     -12.627  -0.537  -2.109  1.00  0.00    -0.387 OA
ATOM     23  H   UNL     1     -12.316  -0.262  -1.221  1.00  0.00    +0.211 HD
ENDBRANCH   3  22
BRANCH   5  24
ATOM     24  C   UNL     1     -14.015  -3.469   1.137  1.00  0.00    +0.220 C 
BRANCH  24  25
ATOM     25  O   UNL     1     -15.201  -3.848   1.830  1.00  0.00    -0.245 OA
BRANCH  25  26
ATOM     26  S   UNL     1     -15.992  -2.699   2.661  1.00  0.00    +0.397 S 
ATOM     27  O   UNL     1     -16.092  -3.076   4.053  1.00  0.00    -0.169 OA
ATOM     28  O   UNL     1     -17.144  -2.292   1.889  1.00  0.00    -0.169 OA
BRANCH  26  29
ATOM     29  O   UNL     1     -14.974  -1.456   2.564  1.00  0.00    -0.264 OA
ATOM     30  H   UNL     1     -14.216  -1.662   3.148  1.00  0.00    +0.236 HD
ENDBRANCH  26  29
ENDBRANCH  25  26
ENDBRANCH  24  25
ENDBRANCH   5  24
BRANCH   4  31
ATOM     31  O   UNL     1     -14.128  -0.995  -0.046  1.00  0.00    -0.387 OA
ATOM     32  H   UNL     1     -15.057  -0.691   0.061  1.00  0.00    +0.211 HD
ENDBRANCH   4  31
TORSDOF 11
ENDMDL
MODEL 6
REMARK VINA RESULT:    -6.614      3.412      7.299
REMARK INTER + INTRA:         -10.676
REMARK INTER:                  -9.370
REMARK INTRA:                  -1.306
REMARK UNBOUND:                -0.970
REMARK SMILES O=S(=O)(O)OC[C@@H]1O[C@H](O[C@H]2[C@@H]3OC[C@H]2O[C@@H](O)[C@H]3O)[C@@H](O)[C@H](O)[C@@H]1O
REMARK SMILES IDX 9 1 21 2 23 3 25 4 7 5 8 6 10 7 11 8 14 9 15 10 13 11 16 12
REMARK SMILES IDX 12 13 17 14 19 15 18 16 20 18 22 20 24 22 6 24 5 25 2 26
REMARK SMILES IDX 1 27 3 28 4 29 26 31
REMARK H PARENT 18 17 20 19 22 21 24 23 4 30 26 32
ROOT
ATOM      1  C   UNL     1     -11.237  -7.945  -1.408  1.00  0.00    +0.282 C 
ATOM      2  C   UNL     1     -11.005  -8.726  -2.715  1.00  0.00    +0.202 C 
ATOM      3  C   UNL     1     -12.342  -8.871  -3.423  1.00  0.00    +0.179 C 
ATOM      4  C   UNL     1     -12.852  -7.486  -3.831  1.00  0.00    +0.177 C 
ATOM      5  C   UNL     1     -12.525  -6.392  -2.786  1.00  0.00    +0.180 C 
ATOM      6  O   UNL     1     -12.249  -6.943  -1.484  1.00  0.00    -0.341 OA
ENDROOT
BRANCH   1   7
ATOM      7  O   UNL     1      -9.973  -7.434  -0.973  1.00  0.00    -0.341 OA
BRANCH   7   8
ATOM      8  C   UNL     1      -9.335  -8.272  -0.015  1.00  0.00    +0.184 C 
ATOM      9  C   UNL     1      -8.693  -8.816   2.172  1.00  0.00    +0.195 C 
ATOM     10  C   UNL     1      -9.785  -8.054   1.421  1.00  0.00    +0.179 C 
ATOM     11  O   UNL     1      -7.487  -8.663   1.380  1.00  0.00    -0.370 OA
ATOM     12  O   UNL     1      -9.815  -6.649   1.730  1.00  0.00    -0.342 OA
ATOM     13  C   UNL     1      -7.865  -7.926   0.189  1.00  0.00    +0.184 C 
ATOM     14  C   UNL     1      -8.581  -5.951   1.610  1.00  0.00    +0.279 C 
ATOM     15  C   UNL     1      -7.704  -6.418   0.427  1.00  0.00    +0.202 C 
BRANCH  14  16
ATOM     16  O   UNL     1      -7.865  -6.073   2.836  1.00  0.00    -0.366 OA
ATOM     17  H   UNL     1      -8.469  -5.710   3.509  1.00  0.00    +0.213 HD
ENDBRANCH  14  16
BRANCH  15  18
ATOM     18  O   UNL     1      -6.326  -6.094   0.654  1.00  0.00    -0.385 OA
ATOM     19  H   UNL     1      -5.908  -6.209  -0.227  1.00  0.00    +0.211 HD
ENDBRANCH  15  18
ENDBRANCH   7   8
ENDBRANCH   1   7
BRANCH   2  20
ATOM     20  O   UNL     1     -10.463 -10.032  -2.458  1.00  0.00    -0.385 OA
ATOM     21  H   UNL     1     -11.127 -10.671  -2.784  1.00  0.00    +0.211 HD
ENDBRANCH   2  20
BRANCH   3  22
ATOM     22  O   UNL     1     -12.201  -9.688  -4.598  1.00  0.00    -0.387 OA
ATOM     23  H   UNL     1     -12.934  -9.410  -5.186  1.00  0.00    +0.211 HD
ENDBRANCH   3  22
BRANCH   5  24
ATOM     24  C   UNL     1     -11.452  -5.376  -3.218  1.00  0.00    +0.220 C 
BRANCH  24  25
ATOM     25  O   UNL     1     -11.954  -4.062  -2.987  1.00  0.00    -0.245 OA
BRANCH  25  26
ATOM     26  S   UNL     1     -11.513  -3.313  -1.616  1.00  0.00    +0.397 S 
ATOM     27  O   UNL     1     -12.659  -3.150  -0.751  1.00  0.00    -0.169 OA
ATOM     28  O   UNL     1     -10.645  -2.210  -1.961  1.00  0.00    -0.169 OA
BRANCH  26  29
ATOM     29  O   UNL     1     -10.541  -4.403  -0.939  1.00  0.00    -0.264 OA
ATOM     30  H   UNL     1      -9.916  -4.697  -1.632  1.00  0.00    +0.236 HD
ENDBRANCH  26  29
ENDBRANCH  25  26
ENDBRANCH  24  25
ENDBRANCH   5  24
BRANCH   4  31
ATOM     31  O   UNL     1     -12.324  -7.153  -5.120  1.00  0.00    -0.387 OA
ATOM     32  H   UNL     1     -11.628  -7.827  -5.289  1.00  0.00    +0.211 HD
ENDBRANCH   4  31
TORSDOF 11
ENDMDL
MODEL 7
REMARK VINA RESULT:    -6.435      2.410      6.728
REMARK INTER + INTRA:         -10.414
REMARK INTER:                  -9.323
REMARK INTRA:                  -1.091
REMARK UNBOUND:                -0.970
REMARK SMILES O=S(=O)(O)OC[C@@H]1O[C@H](O[C@H]2[C@@H]3OC[C@H]2O[C@@H](O)[C@H]3O)[C@@H](O)[C@H](O)[C@@H]1O
REMARK SMILES IDX 9 1 21 2 23 3 25 4 7 5 8 6 10 7 11 8 14 9 15 10 13 11 16 12
REMARK SMILES IDX 12 13 17 14 19 15 18 16 20 18 22 20 24 22 6 24 5 25 2 26
REMARK SMILES IDX 1 27 3 28 4 29 26 31
REMARK H PARENT 18 17 20 19 22 21 24 23 4 30 26 32
ROOT
ATOM      1  C   UNL     1     -13.772  -4.719  -2.232  1.00  0.00    +0.282 C 
ATOM      2  C   UNL     1     -14.272  -3.391  -2.834  1.00  0.00    +0.202 C 
ATOM      3  C   UNL     1     -14.214  -2.328  -1.749  1.00  0.00    +0.179 C 
ATOM      4  C   UNL     1     -12.756  -2.098  -1.343  1.00  0.00    +0.177 C 
ATOM      5  C   UNL     1     -11.918  -3.399  -1.343  1.00  0.00    +0.180 C 
ATOM      6  O   UNL     1     -12.739  -4.580  -1.259  1.00  0.00    -0.341 OA
ENDROOT
BRANCH   1   7
ATOM      7  O   UNL     1     -13.413  -5.582  -3.315  1.00  0.00    -0.341 OA
BRANCH   7   8
ATOM      8  C   UNL     1     -14.193  -6.771  -3.360  1.00  0.00    +0.184 C 
ATOM      9  C   UNL     1     -14.593  -9.018  -2.824  1.00  0.00    +0.195 C 
ATOM     10  C   UNL     1     -13.864  -7.789  -2.278  1.00  0.00    +0.179 C 
ATOM     11  O   UNL     1     -14.522  -8.912  -4.269  1.00  0.00    -0.370 OA
ATOM     12  O   UNL     1     -12.441  -7.970  -2.176  1.00  0.00    -0.342 OA
ATOM     13  C   UNL     1     -13.864  -7.652  -4.560  1.00  0.00    +0.184 C 
ATOM     14  C   UNL     1     -11.778  -8.434  -3.347  1.00  0.00    +0.279 C 
ATOM     15  C   UNL     1     -12.346  -7.858  -4.663  1.00  0.00    +0.202 C 
BRANCH  14  16
ATOM     16  O   UNL     1     -11.827  -9.859  -3.366  1.00  0.00    -0.366 OA
ATOM     17  H   UNL     1     -11.426 -10.128  -2.521  1.00  0.00    +0.213 HD
ENDBRANCH  14  16
BRANCH  15  18
ATOM     18  O   UNL     1     -12.035  -8.714  -5.770  1.00  0.00    -0.385 OA
ATOM     19  H   UNL     1     -12.016  -9.613  -5.377  1.00  0.00    +0.211 HD
ENDBRANCH  15  18
ENDBRANCH   7   8
ENDBRANCH   1   7
BRANCH   2  20
ATOM     20  O   UNL     1     -15.623  -3.506  -3.312  1.00  0.00    -0.385 OA
ATOM     21  H   UNL     1     -15.942  -4.379  -3.012  1.00  0.00    +0.211 HD
ENDBRANCH   2  20
BRANCH   3  22
ATOM     22  O   UNL     1     -14.773  -1.093  -2.228  1.00  0.00    -0.387 OA
ATOM     23  H   UNL     1     -15.113  -1.302  -3.123  1.00  0.00    +0.211 HD
ENDBRANCH   3  22
BRANCH   5  24
ATOM     24  C   UNL     1     -10.876  -3.503  -2.471  1.00  0.00    +0.220 C 
BRANCH  24  25
ATOM     25  O   UNL     1      -9.606  -3.789  -1.890  1.00  0.00    -0.245 OA
BRANCH  25  26
ATOM     26  S   UNL     1      -8.645  -2.535  -1.517  1.00  0.00    +0.397 S 
ATOM     27  O   UNL     1      -8.030  -2.751  -0.227  1.00  0.00    -0.169 OA
ATOM     28  O   UNL     1      -9.347  -1.313  -1.840  1.00  0.00    -0.169 OA
BRANCH  26  29
ATOM     29  O   UNL     1      -7.492  -2.654  -2.634  1.00  0.00    -0.264 OA
ATOM     30  H   UNL     1      -7.898  -3.074  -3.419  1.00  0.00    +0.236 HD
ENDBRANCH  26  29
ENDBRANCH  25  26
ENDBRANCH  24  25
ENDBRANCH   5  24
BRANCH   4  31
ATOM     31  O   UNL     1     -12.182  -1.105  -2.199  1.00  0.00    -0.387 OA
ATOM     32  H   UNL     1     -11.483  -1.581  -2.702  1.00  0.00    +0.211 HD
ENDBRANCH   4  31
TORSDOF 11
ENDMDL
MODEL 8
REMARK VINA RESULT:    -6.427      3.495      6.191
REMARK INTER + INTRA:         -10.402
REMARK INTER:                  -9.727
REMARK INTRA:                  -0.674
REMARK UNBOUND:                -0.970
REMARK SMILES O=S(=O)(O)OC[C@@H]1O[C@H](O[C@H]2[C@@H]3OC[C@H]2O[C@@H](O)[C@H]3O)[C@@H](O)[C@H](O)[C@@H]1O
REMARK SMILES IDX 9 1 21 2 23 3 25 4 7 5 8 6 10 7 11 8 14 9 15 10 13 11 16 12
REMARK SMILES IDX 12 13 17 14 19 15 18 16 20 18 22 20 24 22 6 24 5 25 2 26
REMARK SMILES IDX 1 27 3 28 4 29 26 31
REMARK H PARENT 18 17 20 19 22 21 24 23 4 30 26 32
ROOT
ATOM      1  C   UNL     1     -11.232  -5.234  -1.569  1.00  0.00    +0.282 C 
ATOM      2  C   UNL     1     -10.422  -4.269  -2.456  1.00  0.00    +0.202 C 
ATOM      3  C   UNL     1      -9.764  -3.238  -1.556  1.00  0.00    +0.179 C 
ATOM      4  C   UNL     1      -8.754  -3.936  -0.640  1.00  0.00    +0.177 C 
ATOM      5  C   UNL     1      -9.228  -5.333  -0.174  1.00  0.00    +0.180 C 
ATOM      6  O   UNL     1     -10.655  -5.495  -0.291  1.00  0.00    -0.341 OA
ENDROOT
BRANCH   1   7
ATOM      7  O   UNL     1     -11.479  -6.422  -2.327  1.00  0.00    -0.341 OA
BRANCH   7   8
ATOM      8  C   UNL     1     -12.792  -6.468  -2.876  1.00  0.00    +0.184 C 
ATOM      9  C   UNL     1     -14.820  -7.552  -3.332  1.00  0.00    +0.195 C 
ATOM     10  C   UNL     1     -13.680  -7.566  -2.312  1.00  0.00    +0.179 C 
ATOM     11  O   UNL     1     -14.212  -7.195  -4.600  1.00  0.00    -0.370 OA
ATOM     12  O   UNL     1     -12.968  -8.816  -2.271  1.00  0.00    -0.342 OA
ATOM     13  C   UNL     1     -12.811  -6.931  -4.328  1.00  0.00    +0.184 C 
ATOM     14  C   UNL     1     -12.496  -9.314  -3.518  1.00  0.00    +0.279 C 
ATOM     15  C   UNL     1     -11.991  -8.219  -4.484  1.00  0.00    +0.202 C 
BRANCH  14  16
ATOM     16  O   UNL     1     -13.534 -10.074  -4.130  1.00  0.00    -0.366 OA
ATOM     17  H   UNL     1     -14.245  -9.429  -4.294  1.00  0.00    +0.213 HD
ENDBRANCH  14  16
BRANCH  15  18
ATOM     18  O   UNL     1     -12.035  -8.676  -5.842  1.00  0.00    -0.385 OA
ATOM     19  H   UNL     1     -12.979  -8.903  -5.984  1.00  0.00    +0.211 HD
ENDBRANCH  15  18
ENDBRANCH   7   8
ENDBRANCH   1   7
BRANCH   2  20
ATOM     20  O   UNL     1     -11.264  -3.597  -3.407  1.00  0.00    -0.385 OA
ATOM     21  H   UNL     1     -11.778  -4.297  -3.856  1.00  0.00    +0.211 HD
ENDBRANCH   2  20
BRANCH   3  22
ATOM     22  O   UNL     1      -9.083  -2.246  -2.343  1.00  0.00    -0.387 OA
ATOM     23  H   UNL     1      -9.045  -1.453  -1.768  1.00  0.00    +0.211 HD
ENDBRANCH   3  22
BRANCH   5  24
ATOM     24  C   UNL     1      -8.464  -6.520  -0.790  1.00  0.00    +0.220 C 
BRANCH  24  25
ATOM     25  O   UNL     1      -8.475  -7.597   0.144  1.00  0.00    -0.245 OA
BRANCH  25  26
ATOM     26  S   UNL     1      -7.396  -7.560   1.356  1.00  0.00    +0.397 S 
ATOM     27  O   UNL     1      -6.645  -8.795   1.386  1.00  0.00    -0.169 OA
ATOM     28  O   UNL     1      -8.049  -7.027   2.529  1.00  0.00    -0.169 OA
BRANCH  26  29
ATOM     29  O   UNL     1      -6.397  -6.392   0.877  1.00  0.00    -0.264 OA
ATOM     30  H   UNL     1      -6.589  -5.608   1.431  1.00  0.00    +0.236 HD
ENDBRANCH  26  29
ENDBRANCH  25  26
ENDBRANCH  24  25
ENDBRANCH   5  24
BRANCH   4  31
ATOM     31  O   UNL     1      -7.489  -4.007  -1.306  1.00  0.00    -0.387 OA
ATOM     32  H   UNL     1      -7.342  -4.967  -1.465  1.00  0.00    +0.211 HD
ENDBRANCH   4  31
TORSDOF 11
ENDMDL
MODEL 9
REMARK VINA RESULT:    -6.386      2.617      7.169
REMARK INTER + INTRA:         -10.342
REMARK INTER:                  -9.325
REMARK INTRA:                  -1.017
REMARK UNBOUND:                -0.970
REMARK SMILES O=S(=O)(O)OC[C@@H]1O[C@H](O[C@H]2[C@@H]3OC[C@H]2O[C@@H](O)[C@H]3O)[C@@H](O)[C@H](O)[C@@H]1O
REMARK SMILES IDX 9 1 21 2 23 3 25 4 7 5 8 6 10 7 11 8 14 9 15 10 13 11 16 12
REMARK SMILES IDX 12 13 17 14 19 15 18 16 20 18 22 20 24 22 6 24 5 25 2 26
REMARK SMILES IDX 1 27 3 28 4 29 26 31
REMARK H PARENT 18 17 20 19 22 21 24 23 4 30 26 32
ROOT
ATOM      1  C   UNL     1     -13.127  -5.314  -1.569  1.00  0.00    +0.282 C 
ATOM      2  C   UNL     1     -13.791  -4.797  -2.860  1.00  0.00    +0.202 C 
ATOM      3  C   UNL     1     -14.242  -3.366  -2.621  1.00  0.00    +0.179 C 
ATOM      4  C   UNL     1     -13.015  -2.482  -2.382  1.00  0.00    +0.177 C 
ATOM      5  C   UNL     1     -11.904  -3.198  -1.578  1.00  0.00    +0.180 C 
ATOM      6  O   UNL     1     -12.404  -4.326  -0.835  1.00  0.00    -0.341 OA
ENDROOT
BRANCH   1   7
ATOM      7  O   UNL     1     -12.332  -6.453  -1.911  1.00  0.00    -0.341 OA
BRANCH   7   8
ATOM      8  C   UNL     1     -12.396  -7.488  -0.935  1.00  0.00    +0.184 C 
ATOM      9  C   UNL     1     -11.412  -8.982   0.579  1.00  0.00    +0.195 C 
ATOM     10  C   UNL     1     -11.156  -7.619  -0.065  1.00  0.00    +0.179 C 
ATOM     11  O   UNL     1     -12.125  -9.762  -0.415  1.00  0.00    -0.370 OA
ATOM     12  O   UNL     1      -9.967  -7.586  -0.875  1.00  0.00    -0.342 OA
ATOM     13  C   UNL     1     -12.350  -8.883  -1.548  1.00  0.00    +0.184 C 
ATOM     14  C   UNL     1      -9.848  -8.607  -1.861  1.00  0.00    +0.279 C 
ATOM     15  C   UNL     1     -11.183  -8.988  -2.539  1.00  0.00    +0.202 C 
BRANCH  14  16
ATOM     16  O   UNL     1      -9.252  -9.754  -1.261  1.00  0.00    -0.366 OA
ATOM     17  H   UNL     1      -8.404  -9.431  -0.907  1.00  0.00    +0.213 HD
ENDBRANCH  14  16
BRANCH  15  18
ATOM     18  O   UNL     1     -11.116 -10.309  -3.091  1.00  0.00    -0.385 OA
ATOM     19  H   UNL     1     -10.850 -10.869  -2.331  1.00  0.00    +0.211 HD
ENDBRANCH  15  18
ENDBRANCH   7   8
ENDBRANCH   1   7
BRANCH   2  20
ATOM     20  O   UNL     1     -14.929  -5.597  -3.221  1.00  0.00    -0.385 OA
ATOM     21  H   UNL     1     -15.684  -5.237  -2.716  1.00  0.00    +0.211 HD
ENDBRANCH   2  20
BRANCH   3  22
ATOM     22  O   UNL     1     -14.967  -2.872  -3.760  1.00  0.00    -0.387 OA
ATOM     23  H   UNL     1     -15.322  -2.004  -3.474  1.00  0.00    +0.211 HD
ENDBRANCH   3  22
BRANCH   5  24
ATOM     24  C   UNL     1     -10.643  -3.557  -2.385  1.00  0.00    +0.220 C 
BRANCH  24  25
ATOM     25  O   UNL     1      -9.692  -2.506  -2.230  1.00  0.00    -0.245 OA
BRANCH  25  26
ATOM     26  S   UNL     1      -8.229  -2.889  -1.641  1.00  0.00    +0.397 S 
ATOM     27  O   UNL     1      -7.198  -2.238  -2.416  1.00  0.00    -0.169 OA
ATOM     28  O   UNL     1      -8.207  -4.309  -1.369  1.00  0.00    -0.169 OA
BRANCH  26  29
ATOM     29  O   UNL     1      -8.261  -2.195  -0.189  1.00  0.00    -0.264 OA
ATOM     30  H   UNL     1      -7.367  -2.296   0.195  1.00  0.00    +0.236 HD
ENDBRANCH  26  29
ENDBRANCH  25  26
ENDBRANCH  24  25
ENDBRANCH   5  24
BRANCH   4  31
ATOM     31  O   UNL     1     -12.527  -2.006  -3.641  1.00  0.00    -0.387 OA
ATOM     32  H   UNL     1     -11.616  -2.370  -3.711  1.00  0.00    +0.211 HD
ENDBRANCH   4  31
TORSDOF 11
ENDMDL
