MODEL 1
REMARK VINA RESULT:    -7.126      0.000      0.000
REMARK INTER + INTRA:         -11.390
REMARK INTER:                 -10.459
REMARK INTRA:                  -0.931
REMARK UNBOUND:                -0.931
REMARK SMILES O=S(=O)(O)OC[C@@H]1O[C@H](O[C@H]2[C@@H]3OC[C@H]2O[C@@H](O)[C@H]3O)[C@@H](O)[C@H](O)[C@@H]1O
REMARK SMILES IDX 9 1 21 2 23 3 25 4 7 5 8 6 10 7 11 8 14 9 15 10 13 11 16 12
REMARK SMILES IDX 12 13 17 14 19 15 18 16 20 18 22 20 24 22 6 24 5 25 2 26
REMARK SMILES IDX 1 27 3 28 4 29 26 31
REMARK H PARENT 18 17 20 19 22 21 24 23 4 30 26 32
ROOT
ATOM      1  C   UNL     1     -10.938  -3.357  -1.173  1.00  0.00    +0.282 C 
ATOM      2  C   UNL     1      -9.563  -2.974  -1.755  1.00  0.00    +0.202 C 
ATOM      3  C   UNL     1      -8.489  -3.488  -0.811  1.00  0.00    +0.179 C 
ATOM      4  C   UNL     1      -8.534  -5.018  -0.778  1.00  0.00    +0.177 C 
ATOM      5  C   UNL     1      -9.973  -5.581  -0.861  1.00  0.00    +0.180 C 
ATOM      6  O   UNL     1     -10.965  -4.606  -0.485  1.00  0.00    -0.341 OA
ENDROOT
BRANCH   1   7
ATOM      7  O   UNL     1     -11.898  -3.277  -2.231  1.00  0.00    -0.341 OA
BRANCH   7   8
ATOM      8  C   UNL     1     -13.234  -3.136  -1.758  1.00  0.00    +0.184 C 
ATOM      9  C   UNL     1     -15.489  -2.561  -2.037  1.00  0.00    +0.195 C 
ATOM     10  C   UNL     1     -14.289  -3.050  -2.850  1.00  0.00    +0.179 C 
ATOM     11  O   UNL     1     -14.941  -1.718  -0.991  1.00  0.00    -0.370 OA
ATOM     12  O   UNL     1     -13.878  -2.125  -3.873  1.00  0.00    -0.342 OA
ATOM     13  C   UNL     1     -13.498  -1.774  -1.127  1.00  0.00    +0.184 C 
ATOM     14  C   UNL     1     -13.654  -0.782  -3.456  1.00  0.00    +0.279 C 
ATOM     15  C   UNL     1     -13.010  -0.655  -2.057  1.00  0.00    +0.202 C 
BRANCH  14  16
ATOM     16  O   UNL     1     -14.893  -0.078  -3.497  1.00  0.00    -0.366 OA
ATOM     17  H   UNL     1     -15.025   0.130  -4.439  1.00  0.00    +0.213 HD
ENDBRANCH  14  16
BRANCH  15  18
ATOM     18  O   UNL     1     -13.288   0.628  -1.482  1.00  0.00    -0.385 OA
ATOM     19  H   UNL     1     -13.855   1.069  -2.151  1.00  0.00    +0.211 HD
ENDBRANCH  15  18
ENDBRANCH   7   8
ENDBRANCH   1   7
BRANCH   2  20
ATOM     20  O   UNL     1      -9.429  -1.549  -1.892  1.00  0.00    -0.385 OA
ATOM     21  H   UNL     1      -9.066  -1.229  -1.043  1.00  0.00    +0.211 HD
ENDBRANCH   2  20
BRANCH   3  22
ATOM     22  O   UNL     1      -7.189  -3.062  -1.251  1.00  0.00    -0.387 OA
ATOM     23  H   UNL     1      -6.581  -3.323  -0.528  1.00  0.00    +0.211 HD
ENDBRANCH   3  22
BRANCH   5  24
ATOM     24  C   UNL     1     -10.327  -6.276  -2.188  1.00  0.00    +0.220 C 
BRANCH  24  25
ATOM     25  O   UNL     1      -9.564  -7.477  -2.287  1.00  0.00    -0.245 OA
BRANCH  25  26
ATOM     26  S   UNL     1     -10.341  -8.886  -2.074  1.00  0.00    +0.397 S 
ATOM     27  O   UNL     1     -10.753  -9.421  -3.351  1.00  0.00    -0.169 OA
ATOM     28  O   UNL     1     -11.260  -8.735  -0.969  1.00  0.00    -0.169 OA
BRANCH  26  29
ATOM     29  O   UNL     1      -9.168  -9.831  -1.504  1.00  0.00    -0.264 OA
ATOM     30  H   UNL     1      -9.589 -10.474  -0.898  1.00  0.00    +0.236 HD
ENDBRANCH  26  29
ENDBRANCH  25  26
ENDBRANCH  24  25
ENDBRANCH   5  24
BRANCH   4  31
ATOM     31  O   UNL     1      -7.709  -5.534  -1.829  1.00  0.00    -0.387 OA
ATOM     32  H   UNL     1      -6.799  -5.236  -1.603  1.00  0.00    +0.211 HD
ENDBRANCH   4  31
TORSDOF 11
ENDMDL
MODEL 2
REMARK VINA RESULT:    -6.883      2.857      7.065
REMARK INTER + INTRA:         -11.034
REMARK INTER:                  -9.833
REMARK INTRA:                  -1.201
REMARK UNBOUND:                -0.931
REMARK SMILES O=S(=O)(O)OC[C@@H]1O[C@H](O[C@H]2[C@@H]3OC[C@H]2O[C@@H](O)[C@H]3O)[C@@H](O)[C@H](O)[C@@H]1O
REMARK SMILES IDX 9 1 21 2 23 3 25 4 7 5 8 6 10 7 11 8 14 9 15 10 13 11 16 12
REMARK SMILES IDX 12 13 17 14 19 15 18 16 20 18 22 20 24 22 6 24 5 25 2 26
REMARK SMILES IDX 1 27 3 28 4 29 26 31
REMARK H PARENT 18 17 20 19 22 21 24 23 4 30 26 32
ROOT
ATOM      1  C   UNL     1     -12.229  -4.285  -1.395  1.00  0.00    +0.282 C 
ATOM      2  C   UNL     1     -11.844  -2.794  -1.443  1.00  0.00    +0.202 C 
ATOM      3  C   UNL     1     -13.019  -2.019  -2.014  1.00  0.00    +0.179 C 
ATOM      4  C   UNL     1     -14.210  -2.127  -1.057  1.00  0.00    +0.177 C 
ATOM      5  C   UNL     1     -14.317  -3.517  -0.384  1.00  0.00    +0.180 C 
ATOM      6  O   UNL     1     -13.605  -4.535  -1.113  1.00  0.00    -0.341 OA
ENDROOT
BRANCH   1   7
ATOM      7  O   UNL     1     -11.341  -4.937  -0.483  1.00  0.00    -0.341 OA
BRANCH   7   8
ATOM      8  C   UNL     1     -10.955  -6.237  -0.918  1.00  0.00    +0.184 C 
ATOM      9  C   UNL     1      -9.689  -8.201  -0.734  1.00  0.00    +0.195 C 
ATOM     10  C   UNL     1     -10.255  -7.079   0.138  1.00  0.00    +0.179 C 
ATOM     11  O   UNL     1      -9.379  -7.591  -2.013  1.00  0.00    -0.370 OA
ATOM     12  O   UNL     1      -9.240  -6.307   0.804  1.00  0.00    -0.342 OA
ATOM     13  C   UNL     1      -9.815  -6.209  -1.929  1.00  0.00    +0.184 C 
ATOM     14  C   UNL     1      -8.199  -5.791  -0.019  1.00  0.00    +0.279 C 
ATOM     15  C   UNL     1      -8.672  -5.324  -1.414  1.00  0.00    +0.202 C 
BRANCH  14  16
ATOM     16  O   UNL     1      -7.182  -6.781  -0.146  1.00  0.00    -0.366 OA
ATOM     17  H   UNL     1      -6.433  -6.310  -0.553  1.00  0.00    +0.213 HD
ENDBRANCH  14  16
BRANCH  15  18
ATOM     18  O   UNL     1      -7.584  -5.324  -2.348  1.00  0.00    -0.385 OA
ATOM     19  H   UNL     1      -7.934  -5.819  -3.119  1.00  0.00    +0.211 HD
ENDBRANCH  15  18
ENDBRANCH   7   8
ENDBRANCH   1   7
BRANCH   2  20
ATOM     20  O   UNL     1     -10.688  -2.576  -2.271  1.00  0.00    -0.385 OA
ATOM     21  H   UNL     1     -10.706  -3.278  -2.950  1.00  0.00    +0.211 HD
ENDBRANCH   2  20
BRANCH   3  22
ATOM     22  O   UNL     1     -12.672  -0.634  -2.183  1.00  0.00    -0.387 OA
ATOM     23  H   UNL     1     -11.728  -0.579  -1.926  1.00  0.00    +0.211 HD
ENDBRANCH   3  22
BRANCH   5  24
ATOM     24  C   UNL     1     -13.978  -3.542   1.117  1.00  0.00    +0.220 C 
BRANCH  24  25
ATOM     25  O   UNL     1     -15.146  -3.932   1.838  1.00  0.00    -0.245 OA
BRANCH  25  26
ATOM     26  S   UNL     1     -15.996  -2.769   2.586  1.00  0.00    +0.397 S 
ATOM     27  O   UNL     1     -16.188  -3.115   3.976  1.00  0.00    -0.169 OA
ATOM     28  O   UNL     1     -17.095  -2.387   1.729  1.00  0.00    -0.169 OA
BRANCH  26  29
ATOM     29  O   UNL     1     -14.979  -1.523   2.530  1.00  0.00    -0.264 OA
ATOM     30  H   UNL     1     -14.079  -1.893   2.422  1.00  0.00    +0.236 HD
ENDBRANCH  26  29
ENDBRANCH  25  26
ENDBRANCH  24  25
ENDBRANCH   5  24
BRANCH   4  31
ATOM     31  O   UNL     1     -14.127  -1.080  -0.085  1.00  0.00    -0.387 OA
ATOM     32  H   UNL     1     -13.306  -1.271   0.422  1.00  0.00    +0.211 HD
ENDBRANCH   4  31
TORSDOF 11
ENDMDL
MODEL 3
REMARK VINA RESULT:    -6.867      1.488      2.651
REMARK INTER + INTRA:         -11.010
REMARK INTER:                 -10.018
REMARK INTRA:                  -0.992
REMARK UNBOUND:                -0.931
REMARK SMILES O=S(=O)(O)OC[C@@H]1O[C@H](O[C@H]2[C@@H]3OC[C@H]2O[C@@H](O)[C@H]3O)[C@@H](O)[C@H](O)[C@@H]1O
REMARK SMILES IDX 9 1 21 2 23 3 25 4 7 5 8 6 10 7 11 8 14 9 15 10 13 11 16 12
REMARK SMILES IDX 12 13 17 14 19 15 18 16 20 18 22 20 24 22 6 24 5 25 2 26
REMARK SMILES IDX 1 27 3 28 4 29 26 31
REMARK H PARENT 18 17 20 19 22 21 24 23 4 30 26 32
ROOT
ATOM      1  C   UNL     1     -11.269  -4.015  -1.623  1.00  0.00    +0.282 C 
ATOM      2  C   UNL     1      -9.889  -4.295  -2.247  1.00  0.00    +0.202 C 
ATOM      3  C   UNL     1      -9.133  -5.236  -1.325  1.00  0.00    +0.179 C 
ATOM      4  C   UNL     1      -9.862  -6.581  -1.267  1.00  0.00    +0.177 C 
ATOM      5  C   UNL     1     -11.402  -6.434  -1.301  1.00  0.00    +0.180 C 
ATOM      6  O   UNL     1     -11.835  -5.116  -0.914  1.00  0.00    -0.341 OA
ENDROOT
BRANCH   1   7
ATOM      7  O   UNL     1     -12.123  -3.512  -2.654  1.00  0.00    -0.341 OA
BRANCH   7   8
ATOM      8  C   UNL     1     -12.377  -2.116  -2.533  1.00  0.00    +0.184 C 
ATOM      9  C   UNL     1     -13.479  -0.278  -1.585  1.00  0.00    +0.195 C 
ATOM     10  C   UNL     1     -13.050  -1.703  -1.233  1.00  0.00    +0.179 C 
ATOM     11  O   UNL     1     -13.782  -0.294  -3.004  1.00  0.00    -0.370 OA
ATOM     12  O   UNL     1     -14.156  -2.575  -0.941  1.00  0.00    -0.342 OA
ATOM     13  C   UNL     1     -13.469  -1.629  -3.479  1.00  0.00    +0.184 C 
ATOM     14  C   UNL     1     -15.198  -2.619  -1.909  1.00  0.00    +0.279 C 
ATOM     15  C   UNL     1     -14.705  -2.533  -3.371  1.00  0.00    +0.202 C 
BRANCH  14  16
ATOM     16  O   UNL     1     -16.122  -1.569  -1.635  1.00  0.00    -0.366 OA
ATOM     17  H   UNL     1     -16.597  -1.435  -2.474  1.00  0.00    +0.213 HD
ENDBRANCH  14  16
BRANCH  15  18
ATOM     18  O   UNL     1     -15.746  -2.057  -4.233  1.00  0.00    -0.385 OA
ATOM     19  H   UNL     1     -15.265  -1.591  -4.951  1.00  0.00    +0.211 HD
ENDBRANCH  15  18
ENDBRANCH   7   8
ENDBRANCH   1   7
BRANCH   2  20
ATOM     20  O   UNL     1      -9.131  -3.083  -2.411  1.00  0.00    -0.385 OA
ATOM     21  H   UNL     1      -8.276  -3.236  -1.961  1.00  0.00    +0.211 HD
ENDBRANCH   2  20
BRANCH   3  22
ATOM     22  O   UNL     1      -7.794  -5.443  -1.808  1.00  0.00    -0.387 OA
ATOM     23  H   UNL     1      -7.217  -5.233  -1.043  1.00  0.00    +0.211 HD
ENDBRANCH   3  22
BRANCH   5  24
ATOM     24  C   UNL     1     -12.073  -6.897  -2.607  1.00  0.00    +0.220 C 
BRANCH  24  25
ATOM     25  O   UNL     1     -11.982  -8.318  -2.682  1.00  0.00    -0.245 OA
BRANCH  25  26
ATOM     26  S   UNL     1     -12.308  -9.023  -4.108  1.00  0.00    +0.397 S 
ATOM     27  O   UNL     1     -13.670  -9.507  -4.119  1.00  0.00    -0.169 OA
ATOM     28  O   UNL     1     -11.189  -9.864  -4.465  1.00  0.00    -0.169 OA
BRANCH  26  29
ATOM     29  O   UNL     1     -12.225  -7.776  -5.123  1.00  0.00    -0.264 OA
ATOM     30  H   UNL     1     -11.809  -8.105  -5.945  1.00  0.00    +0.236 HD
ENDBRANCH  26  29
ENDBRANCH  25  26
ENDBRANCH  24  25
ENDBRANCH   5  24
BRANCH   4  31
ATOM     31  O   UNL     1      -9.392  -7.416  -2.331  1.00  0.00    -0.387 OA
ATOM     32  H   UNL     1     -10.166  -7.971  -2.575  1.00  0.00    +0.211 HD
ENDBRANCH   4  31
TORSDOF 11
ENDMDL
MODEL 4
REMARK VINA RESULT:    -6.760      4.355      6.187
REMARK INTER + INTRA:         -10.852
REMARK INTER:                  -9.889
REMARK INTRA:                  -0.964
REMARK UNBOUND:                -0.931
REMARK SMILES O=S(=O)(O)OC[C@@H]1O[C@H](O[C@H]2[C@@H]3OC[C@H]2O[C@@H](O)[C@H]3O)[C@@H](O)[C@H](O)[C@@H]1O
REMARK SMILES IDX 9 1 21 2 23 3 25 4 7 5 8 6 10 7 11 8 14 9 15 10 13 11 16 12
REMARK SMILES IDX 12 13 17 14 19 15 18 16 20 18 22 20 24 22 6 24 5 25 2 26
REMARK SMILES IDX 1 27 3 28 4 29 26 31
REMARK H PARENT 18 17 20 19 22 21 24 23 4 30 26 32
ROOT
ATOM      1  C   UNL     1     -10.084  -6.557  -0.214  1.00  0.00    +0.282 C 
ATOM      2  C   UNL     1      -9.000  -5.710  -0.908  1.00  0.00    +0.202 C 
ATOM      3  C   UNL     1      -8.342  -4.830   0.141  1.00  0.00    +0.179 C 
ATOM      4  C   UNL     1      -7.615  -5.714   1.159  1.00  0.00    +0.177 C 
ATOM      5  C   UNL     1      -8.371  -7.029   1.464  1.00  0.00    +0.180 C 
ATOM      6  O   UNL     1      -9.768  -6.951   1.120  1.00  0.00    -0.341 OA
ENDROOT
BRANCH   1   7
ATOM      7  O   UNL     1     -10.389  -7.663  -1.068  1.00  0.00    -0.341 OA
BRANCH   7   8
ATOM      8  C   UNL     1     -11.743  -7.666  -1.511  1.00  0.00    +0.184 C 
ATOM      9  C   UNL     1     -13.826  -8.693  -1.824  1.00  0.00    +0.195 C 
ATOM     10  C   UNL     1     -12.609  -8.757  -0.900  1.00  0.00    +0.179 C 
ATOM     11  O   UNL     1     -13.313  -8.320  -3.130  1.00  0.00    -0.370 OA
ATOM     12  O   UNL     1     -11.927 -10.023  -0.943  1.00  0.00    -0.342 OA
ATOM     13  C   UNL     1     -11.889  -8.095  -2.966  1.00  0.00    +0.184 C 
ATOM     14  C   UNL     1     -11.568 -10.502  -2.235  1.00  0.00    +0.279 C 
ATOM     15  C   UNL     1     -11.115  -9.397  -3.214  1.00  0.00    +0.202 C 
BRANCH  14  16
ATOM     16  O   UNL     1     -12.671 -11.225  -2.777  1.00  0.00    -0.366 OA
ATOM     17  H   UNL     1     -13.457 -10.753  -2.449  1.00  0.00    +0.213 HD
ENDBRANCH  14  16
BRANCH  15  18
ATOM     18  O   UNL     1     -11.280  -9.822  -4.574  1.00  0.00    -0.385 OA
ATOM     19  H   UNL     1     -12.111  -9.385  -4.859  1.00  0.00    +0.211 HD
ENDBRANCH  15  18
ENDBRANCH   7   8
ENDBRANCH   1   7
BRANCH   2  20
ATOM     20  O   UNL     1      -9.563  -4.878  -1.937  1.00  0.00    -0.385 OA
ATOM     21  H   UNL     1      -8.988  -4.990  -2.719  1.00  0.00    +0.211 HD
ENDBRANCH   2  20
BRANCH   3  22
ATOM     22  O   UNL     1      -7.396  -3.939  -0.474  1.00  0.00    -0.387 OA
ATOM     23  H   UNL     1      -6.615  -4.499  -0.668  1.00  0.00    +0.211 HD
ENDBRANCH   3  22
BRANCH   5  24
ATOM     24  C   UNL     1      -7.714  -8.304   0.905  1.00  0.00    +0.220 C 
BRANCH  24  25
ATOM     25  O   UNL     1      -6.485  -8.519   1.595  1.00  0.00    -0.245 OA
BRANCH  25  26
ATOM     26  S   UNL     1      -5.814  -9.995   1.506  1.00  0.00    +0.397 S 
ATOM     27  O   UNL     1      -6.795 -10.956   1.056  1.00  0.00    -0.169 OA
ATOM     28  O   UNL     1      -5.019 -10.204   2.694  1.00  0.00    -0.169 OA
BRANCH  26  29
ATOM     29  O   UNL     1      -4.740  -9.803   0.322  1.00  0.00    -0.264 OA
ATOM     30  H   UNL     1      -5.178 -10.081  -0.508  1.00  0.00    +0.236 HD
ENDBRANCH  26  29
ENDBRANCH  25  26
ENDBRANCH  24  25
ENDBRANCH   5  24
BRANCH   4  31
ATOM     31  O   UNL     1      -6.286  -5.971   0.692  1.00  0.00    -0.387 OA
ATOM     32  H   UNL     1      -5.981  -6.745   1.215  1.00  0.00    +0.211 HD
ENDBRANCH   4  31
TORSDOF 11
ENDMDL
MODEL 5
REMARK VINA RESULT:    -6.655      3.141      5.457
REMARK INTER + INTRA:         -10.699
REMARK INTER:                  -9.634
REMARK INTRA:                  -1.065
REMARK UNBOUND:                -0.931
REMARK SMILES O=S(=O)(O)OC[C@@H]1O[C@H](O[C@H]2[C@@H]3OC[C@H]2O[C@@H](O)[C@H]3O)[C@@H](O)[C@H](O)[C@@H]1O
REMARK SMILES IDX 9 1 21 2 23 3 25 4 7 5 8 6 10 7 11 8 14 9 15 10 13 11 16 12
REMARK SMILES IDX 12 13 17 14 19 15 18 16 20 18 22 20 24 22 6 24 5 25 2 26
REMARK SMILES IDX 1 27 3 28 4 29 26 31
REMARK H PARENT 18 17 20 19 22 21 24 23 4 30 26 32
ROOT
ATOM      1  C   UNL     1     -10.975  -5.227  -1.856  1.00  0.00    +0.282 C 
ATOM      2  C   UNL     1     -10.124  -4.135  -2.532  1.00  0.00    +0.202 C 
ATOM      3  C   UNL     1      -9.698  -3.138  -1.467  1.00  0.00    +0.179 C 
ATOM      4  C   UNL     1      -8.783  -3.837  -0.458  1.00  0.00    +0.177 C 
ATOM      5  C   UNL     1      -9.202  -5.299  -0.175  1.00  0.00    +0.180 C 
ATOM      6  O   UNL     1     -10.576  -5.553  -0.525  1.00  0.00    -0.341 OA
ENDROOT
BRANCH   1   7
ATOM      7  O   UNL     1     -11.004  -6.361  -2.727  1.00  0.00    -0.341 OA
BRANCH   7   8
ATOM      8  C   UNL     1     -12.313  -6.666  -3.197  1.00  0.00    +0.184 C 
ATOM      9  C   UNL     1     -14.340  -7.840  -3.092  1.00  0.00    +0.195 C 
ATOM     10  C   UNL     1     -13.208  -7.361  -2.182  1.00  0.00    +0.179 C 
ATOM     11  O   UNL     1     -13.722  -8.134  -4.372  1.00  0.00    -0.370 OA
ATOM     12  O   UNL     1     -12.499  -8.437  -1.541  1.00  0.00    -0.342 OA
ATOM     13  C   UNL     1     -12.322  -7.769  -4.249  1.00  0.00    +0.184 C 
ATOM     14  C   UNL     1     -12.018  -9.471  -2.393  1.00  0.00    +0.279 C 
ATOM     15  C   UNL     1     -11.503  -8.973  -3.762  1.00  0.00    +0.202 C 
BRANCH  14  16
ATOM     16  O   UNL     1     -13.054 -10.434  -2.573  1.00  0.00    -0.366 OA
ATOM     17  H   UNL     1     -13.526 -10.446  -1.722  1.00  0.00    +0.213 HD
ENDBRANCH  14  16
BRANCH  15  18
ATOM     18  O   UNL     1     -11.539 -10.025  -4.734  1.00  0.00    -0.385 OA
ATOM     19  H   UNL     1     -12.092  -9.660  -5.458  1.00  0.00    +0.211 HD
ENDBRANCH  15  18
ENDBRANCH   7   8
ENDBRANCH   1   7
BRANCH   2  20
ATOM     20  O   UNL     1     -10.868  -3.447  -3.552  1.00  0.00    -0.385 OA
ATOM     21  H   UNL     1     -11.682  -3.121  -3.120  1.00  0.00    +0.211 HD
ENDBRANCH   2  20
BRANCH   3  22
ATOM     22  O   UNL     1      -8.992  -2.038  -2.064  1.00  0.00    -0.387 OA
ATOM     23  H   UNL     1      -8.890  -2.288  -3.007  1.00  0.00    +0.211 HD
ENDBRANCH   3  22
BRANCH   5  24
ATOM     24  C   UNL     1      -8.257  -6.372  -0.748  1.00  0.00    +0.220 C 
BRANCH  24  25
ATOM     25  O   UNL     1      -7.191  -6.575   0.176  1.00  0.00    -0.245 OA
BRANCH  25  26
ATOM     26  S   UNL     1      -7.407  -7.673   1.352  1.00  0.00    +0.397 S 
ATOM     27  O   UNL     1      -6.152  -8.321   1.660  1.00  0.00    -0.169 OA
ATOM     28  O   UNL     1      -8.608  -8.421   1.059  1.00  0.00    -0.169 OA
BRANCH  26  29
ATOM     29  O   UNL     1      -7.798  -6.745   2.608  1.00  0.00    -0.264 OA
ATOM     30  H   UNL     1      -8.732  -6.478   2.485  1.00  0.00    +0.236 HD
ENDBRANCH  26  29
ENDBRANCH  25  26
ENDBRANCH  24  25
ENDBRANCH   5  24
BRANCH   4  31
ATOM     31  O   UNL     1      -7.430  -3.761  -0.921  1.00  0.00    -0.387 OA
ATOM     32  H   UNL     1      -7.328  -4.528  -1.528  1.00  0.00    +0.211 HD
ENDBRANCH   4  31
TORSDOF 11
ENDMDL
MODEL 6
REMARK VINA RESULT:    -6.620      3.527      7.599
REMARK INTER + INTRA:         -10.648
REMARK INTER:                  -9.698
REMARK INTRA:                  -0.950
REMARK UNBOUND:                -0.931
REMARK SMILES O=S(=O)(O)OC[C@@H]1O[C@H](O[C@H]2[C@@H]3OC[C@H]2O[C@@H](O)[C@H]3O)[C@@H](O)[C@H](O)[C@@H]1O
REMARK SMILES IDX 9 1 21 2 23 3 25 4 7 5 8 6 10 7 11 8 14 9 15 10 13 11 16 12
REMARK SMILES IDX 12 13 17 14 19 15 18 16 20 18 22 20 24 22 6 24 5 25 2 26
REMARK SMILES IDX 1 27 3 28 4 29 26 31
REMARK H PARENT 18 17 20 19 22 21 24 23 4 30 26 32
ROOT
ATOM      1  C   UNL     1      -9.018  -7.194  -0.762  1.00  0.00    +0.282 C 
ATOM      2  C   UNL     1      -9.863  -6.031  -0.206  1.00  0.00    +0.202 C 
ATOM      3  C   UNL     1     -10.247  -5.128  -1.366  1.00  0.00    +0.179 C 
ATOM      4  C   UNL     1     -11.154  -5.900  -2.328  1.00  0.00    +0.177 C 
ATOM      5  C   UNL     1     -10.756  -7.389  -2.468  1.00  0.00    +0.180 C 
ATOM      6  O   UNL     1      -9.395  -7.633  -2.066  1.00  0.00    -0.341 OA
ENDROOT
BRANCH   1   7
ATOM      7  O   UNL     1      -9.028  -8.244   0.209  1.00  0.00    -0.341 OA
BRANCH   7   8
ATOM      8  C   UNL     1      -7.726  -8.736   0.508  1.00  0.00    +0.184 C 
ATOM      9  C   UNL     1      -6.253 -10.184   1.618  1.00  0.00    +0.195 C 
ATOM     10  C   UNL     1      -7.696 -10.131   1.114  1.00  0.00    +0.179 C 
ATOM     11  O   UNL     1      -5.921  -8.827   2.008  1.00  0.00    -0.370 OA
ATOM     12  O   UNL     1      -8.672 -10.243   2.165  1.00  0.00    -0.342 OA
ATOM     13  C   UNL     1      -7.070  -8.006   1.675  1.00  0.00    +0.184 C 
ATOM     14  C   UNL     1      -8.520  -9.351   3.264  1.00  0.00    +0.279 C 
ATOM     15  C   UNL     1      -8.036  -7.939   2.867  1.00  0.00    +0.202 C 
BRANCH  14  16
ATOM     16  O   UNL     1      -7.626  -9.935   4.207  1.00  0.00    -0.366 OA
ATOM     17  H   UNL     1      -7.319 -10.754   3.779  1.00  0.00    +0.213 HD
ENDBRANCH  14  16
BRANCH  15  18
ATOM     18  O   UNL     1      -7.410  -7.283   3.977  1.00  0.00    -0.385 OA
ATOM     19  H   UNL     1      -7.709  -7.800   4.756  1.00  0.00    +0.211 HD
ENDBRANCH  15  18
ENDBRANCH   7   8
ENDBRANCH   1   7
BRANCH   2  20
ATOM     20  O   UNL     1      -9.128  -5.265   0.764  1.00  0.00    -0.385 OA
ATOM     21  H   UNL     1      -8.963  -5.868   1.515  1.00  0.00    +0.211 HD
ENDBRANCH   2  20
BRANCH   3  22
ATOM     22  O   UNL     1     -10.945  -3.966  -0.887  1.00  0.00    -0.387 OA
ATOM     23  H   UNL     1     -10.276  -3.467  -0.374  1.00  0.00    +0.211 HD
ENDBRANCH   3  22
BRANCH   5  24
ATOM     24  C   UNL     1     -11.733  -8.389  -1.823  1.00  0.00    +0.220 C 
BRANCH  24  25
ATOM     25  O   UNL     1     -11.427  -9.696  -2.305  1.00  0.00    -0.245 OA
BRANCH  25  26
ATOM     26  S   UNL     1     -12.245 -10.235  -3.600  1.00  0.00    +0.397 S 
ATOM     27  O   UNL     1     -13.450  -9.457  -3.782  1.00  0.00    -0.169 OA
ATOM     28  O   UNL     1     -12.261 -11.679  -3.558  1.00  0.00    -0.169 OA
BRANCH  26  29
ATOM     29  O   UNL     1     -11.242  -9.870  -4.804  1.00  0.00    -0.264 OA
ATOM     30  H   UNL     1     -11.698 -10.107  -5.637  1.00  0.00    +0.236 HD
ENDBRANCH  26  29
ENDBRANCH  25  26
ENDBRANCH  24  25
ENDBRANCH   5  24
BRANCH   4  31
ATOM     31  O   UNL     1     -12.515  -5.760  -1.905  1.00  0.00    -0.387 OA
ATOM     32  H   UNL     1     -12.900  -6.661  -1.994  1.00  0.00    +0.211 HD
ENDBRANCH   4  31
TORSDOF 11
ENDMDL
MODEL 7
REMARK VINA RESULT:    -6.598      2.764      6.330
REMARK INTER + INTRA:         -10.616
REMARK INTER:                  -9.567
REMARK INTRA:                  -1.048
REMARK UNBOUND:                -0.931
REMARK SMILES O=S(=O)(O)OC[C@@H]1O[C@H](O[C@H]2[C@@H]3OC[C@H]2O[C@@H](O)[C@H]3O)[C@@H](O)[C@H](O)[C@@H]1O
REMARK SMILES IDX 9 1 21 2 23 3 25 4 7 5 8 6 10 7 11 8 14 9 15 10 13 11 16 12
REMARK SMILES IDX 12 13 17 14 19 15 18 16 20 18 22 20 24 22 6 24 5 25 2 26
REMARK SMILES IDX 1 27 3 28 4 29 26 31
REMARK H PARENT 18 17 20 19 22 21 24 23 4 30 26 32
ROOT
ATOM      1  C   UNL     1     -13.785  -4.686  -2.299  1.00  0.00    +0.282 C 
ATOM      2  C   UNL     1     -14.205  -3.370  -2.982  1.00  0.00    +0.202 C 
ATOM      3  C   UNL     1     -14.198  -2.270  -1.934  1.00  0.00    +0.179 C 
ATOM      4  C   UNL     1     -12.768  -2.059  -1.430  1.00  0.00    +0.177 C 
ATOM      5  C   UNL     1     -11.966  -3.378  -1.324  1.00  0.00    +0.180 C 
ATOM      6  O   UNL     1     -12.821  -4.535  -1.259  1.00  0.00    -0.341 OA
ENDROOT
BRANCH   1   7
ATOM      7  O   UNL     1     -13.371  -5.597  -3.322  1.00  0.00    -0.341 OA
BRANCH   7   8
ATOM      8  C   UNL     1     -14.169  -6.775  -3.373  1.00  0.00    +0.184 C 
ATOM      9  C   UNL     1     -14.619  -9.007  -2.818  1.00  0.00    +0.195 C 
ATOM     10  C   UNL     1     -13.887  -7.782  -2.268  1.00  0.00    +0.179 C 
ATOM     11  O   UNL     1     -14.505  -8.922  -4.262  1.00  0.00    -0.370 OA
ATOM     12  O   UNL     1     -12.470  -7.983  -2.122  1.00  0.00    -0.342 OA
ATOM     13  C   UNL     1     -13.818  -7.677  -4.550  1.00  0.00    +0.184 C 
ATOM     14  C   UNL     1     -11.781  -8.474  -3.267  1.00  0.00    +0.279 C 
ATOM     15  C   UNL     1     -12.302  -7.909  -4.607  1.00  0.00    +0.202 C 
BRANCH  14  16
ATOM     16  O   UNL     1     -11.852  -9.898  -3.268  1.00  0.00    -0.366 OA
ATOM     17  H   UNL     1     -12.121 -10.130  -2.361  1.00  0.00    +0.213 HD
ENDBRANCH  14  16
BRANCH  15  18
ATOM     18  O   UNL     1     -11.973  -8.785  -5.693  1.00  0.00    -0.385 OA
ATOM     19  H   UNL     1     -12.642  -9.500  -5.631  1.00  0.00    +0.211 HD
ENDBRANCH  15  18
ENDBRANCH   7   8
ENDBRANCH   1   7
BRANCH   2  20
ATOM     20  O   UNL     1     -15.520  -3.471  -3.553  1.00  0.00    -0.385 OA
ATOM     21  H   UNL     1     -15.422  -3.249  -4.500  1.00  0.00    +0.211 HD
ENDBRANCH   2  20
BRANCH   3  22
ATOM     22  O   UNL     1     -14.688  -1.040  -2.495  1.00  0.00    -0.387 OA
ATOM     23  H   UNL     1     -15.617  -0.977  -2.187  1.00  0.00    +0.211 HD
ENDBRANCH   3  22
BRANCH   5  24
ATOM     24  C   UNL     1     -10.848  -3.549  -2.369  1.00  0.00    +0.220 C 
BRANCH  24  25
ATOM     25  O   UNL     1      -9.837  -2.578  -2.112  1.00  0.00    -0.245 OA
BRANCH  25  26
ATOM     26  S   UNL     1      -8.351  -3.113  -1.735  1.00  0.00    +0.397 S 
ATOM     27  O   UNL     1      -7.359  -2.399  -2.505  1.00  0.00    -0.169 OA
ATOM     28  O   UNL     1      -8.390  -4.557  -1.679  1.00  0.00    -0.169 OA
BRANCH  26  29
ATOM     29  O   UNL     1      -8.208  -2.647  -0.201  1.00  0.00    -0.264 OA
ATOM     30  H   UNL     1      -7.453  -3.141   0.178  1.00  0.00    +0.236 HD
ENDBRANCH  26  29
ENDBRANCH  25  26
ENDBRANCH  24  25
ENDBRANCH   5  24
BRANCH   4  31
ATOM     31  O   UNL     1     -12.107  -1.112  -2.277  1.00  0.00    -0.387 OA
ATOM     32  H   UNL     1     -11.334  -0.803  -1.754  1.00  0.00    +0.211 HD
ENDBRANCH   4  31
TORSDOF 11
ENDMDL
MODEL 8
REMARK VINA RESULT:    -6.339      2.525      6.939
REMARK INTER + INTRA:         -10.236
REMARK INTER:                  -9.237
REMARK INTRA:                  -0.999
REMARK UNBOUND:                -0.931
REMARK SMILES O=S(=O)(O)OC[C@@H]1O[C@H](O[C@H]2[C@@H]3OC[C@H]2O[C@@H](O)[C@H]3O)[C@@H](O)[C@H](O)[C@@H]1O
REMARK SMILES IDX 9 1 21 2 23 3 25 4 7 5 8 6 10 7 11 8 14 9 15 10 13 11 16 12
REMARK SMILES IDX 12 13 17 14 19 15 18 16 20 18 22 20 24 22 6 24 5 25 2 26
REMARK SMILES IDX 1 27 3 28 4 29 26 31
REMARK H PARENT 18 17 20 19 22 21 24 23 4 30 26 32
ROOT
ATOM      1  C   UNL     1      -9.594  -5.806  -1.715  1.00  0.00    +0.282 C 
ATOM      2  C   UNL     1      -8.635  -5.012  -0.806  1.00  0.00    +0.202 C 
ATOM      3  C   UNL     1      -8.045  -3.873  -1.619  1.00  0.00    +0.179 C 
ATOM      4  C   UNL     1      -9.162  -2.905  -2.019  1.00  0.00    +0.177 C 
ATOM      5  C   UNL     1     -10.492  -3.624  -2.350  1.00  0.00    +0.180 C 
ATOM      6  O   UNL     1     -10.299  -5.015  -2.670  1.00  0.00    -0.341 OA
ENDROOT
BRANCH   1   7
ATOM      7  O   UNL     1     -10.458  -6.575  -0.874  1.00  0.00    -0.341 OA
BRANCH   7   8
ATOM      8  C   UNL     1     -11.058  -7.674  -1.551  1.00  0.00    +0.184 C 
ATOM      9  C   UNL     1     -12.284  -9.672  -1.595  1.00  0.00    +0.195 C 
ATOM     10  C   UNL     1     -12.131  -8.402  -0.755  1.00  0.00    +0.179 C 
ATOM     11  O   UNL     1     -10.968  -9.945  -2.143  1.00  0.00    -0.370 OA
ATOM     12  O   UNL     1     -11.675  -8.658   0.585  1.00  0.00    -0.342 OA
ATOM     13  C   UNL     1     -10.109  -8.854  -1.721  1.00  0.00    +0.184 C 
ATOM     14  C   UNL     1     -10.502  -9.455   0.712  1.00  0.00    +0.279 C 
ATOM     15  C   UNL     1      -9.442  -9.195  -0.381  1.00  0.00    +0.202 C 
BRANCH  14  16
ATOM     16  O   UNL     1     -10.882 -10.829   0.718  1.00  0.00    -0.366 OA
ATOM     17  H   UNL     1     -11.699 -10.859   0.188  1.00  0.00    +0.213 HD
ENDBRANCH  14  16
BRANCH  15  18
ATOM     18  O   UNL     1      -8.575 -10.326  -0.530  1.00  0.00    -0.385 OA
ATOM     19  H   UNL     1      -9.154 -11.019  -0.916  1.00  0.00    +0.211 HD
ENDBRANCH  15  18
ENDBRANCH   7   8
ENDBRANCH   1   7
BRANCH   2  20
ATOM     20  O   UNL     1      -7.569  -5.843  -0.315  1.00  0.00    -0.385 OA
ATOM     21  H   UNL     1      -7.987  -6.679  -0.030  1.00  0.00    +0.211 HD
ENDBRANCH   2  20
BRANCH   3  22
ATOM     22  O   UNL     1      -7.059  -3.165  -0.849  1.00  0.00    -0.387 OA
ATOM     23  H   UNL     1      -7.394  -2.245  -0.799  1.00  0.00    +0.211 HD
ENDBRANCH   3  22
BRANCH   5  24
ATOM     24  C   UNL     1     -11.616  -3.424  -1.317  1.00  0.00    +0.220 C 
BRANCH  24  25
ATOM     25  O   UNL     1     -12.805  -3.050  -2.009  1.00  0.00    -0.245 OA
BRANCH  25  26
ATOM     26  S   UNL     1     -13.022  -1.477  -2.346  1.00  0.00    +0.397 S 
ATOM     27  O   UNL     1     -11.869  -0.717  -1.921  1.00  0.00    -0.169 OA
ATOM     28  O   UNL     1     -14.368  -1.112  -1.965  1.00  0.00    -0.169 OA
BRANCH  26  29
ATOM     29  O   UNL     1     -13.039  -1.480  -3.956  1.00  0.00    -0.264 OA
ATOM     30  H   UNL     1     -13.754  -0.872  -4.234  1.00  0.00    +0.236 HD
ENDBRANCH  26  29
ENDBRANCH  25  26
ENDBRANCH  24  25
ENDBRANCH   5  24
BRANCH   4  31
ATOM     31  O   UNL     1      -9.336  -1.934  -0.981  1.00  0.00    -0.387 OA
ATOM     32  H   UNL     1      -8.769  -1.177  -1.248  1.00  0.00    +0.211 HD
ENDBRANCH   4  31
TORSDOF 11
ENDMDL
MODEL 9
REMARK VINA RESULT:    -6.247      7.980     11.541
REMARK INTER + INTRA:         -10.100
REMARK INTER:                  -8.876
REMARK INTRA:                  -1.224
REMARK UNBOUND:                -0.931
REMARK SMILES O=S(=O)(O)OC[C@@H]1O[C@H](O[C@H]2[C@@H]3OC[C@H]2O[C@@H](O)[C@H]3O)[C@@H](O)[C@H](O)[C@@H]1O
REMARK SMILES IDX 9 1 21 2 23 3 25 4 7 5 8 6 10 7 11 8 14 9 15 10 13 11 16 12
REMARK SMILES IDX 12 13 17 14 19 15 18 16 20 18 22 20 24 22 6 24 5 25 2 26
REMARK SMILES IDX 1 27 3 28 4 29 26 31
REMARK H PARENT 18 17 20 19 22 21 24 23 4 30 26 32
ROOT
ATOM      1  C   UNL     1      -5.242 -11.017   4.245  1.00  0.00    +0.282 C 
ATOM      2  C   UNL     1      -4.005 -10.304   3.665  1.00  0.00    +0.202 C 
ATOM      3  C   UNL     1      -3.782 -10.815   2.252  1.00  0.00    +0.179 C 
ATOM      4  C   UNL     1      -4.968 -10.406   1.374  1.00  0.00    +0.177 C 
ATOM      5  C   UNL     1      -6.320 -10.460   2.124  1.00  0.00    +0.180 C 
ATOM      6  O   UNL     1      -6.266 -11.300   3.293  1.00  0.00    -0.341 OA
ENDROOT
BRANCH   1   7
ATOM      7  O   UNL     1      -5.707 -10.250   5.359  1.00  0.00    -0.341 OA
BRANCH   7   8
ATOM      8  C   UNL     1      -5.547 -10.925   6.603  1.00  0.00    +0.184 C 
ATOM      9  C   UNL     1      -6.204 -12.489   8.220  1.00  0.00    +0.195 C 
ATOM     10  C   UNL     1      -6.301 -12.241   6.714  1.00  0.00    +0.179 C 
ATOM     11  O   UNL     1      -6.219 -11.177   8.839  1.00  0.00    -0.370 OA
ATOM     12  O   UNL     1      -7.653 -12.086   6.248  1.00  0.00    -0.342 OA
ATOM     13  C   UNL     1      -6.237 -10.209   7.758  1.00  0.00    +0.184 C 
ATOM     14  C   UNL     1      -8.453 -11.132   6.938  1.00  0.00    +0.279 C 
ATOM     15  C   UNL     1      -7.684  -9.866   7.379  1.00  0.00    +0.202 C 
BRANCH  14  16
ATOM     16  O   UNL     1      -9.051 -11.767   8.065  1.00  0.00    -0.366 OA
ATOM     17  H   UNL     1      -8.744 -12.690   8.017  1.00  0.00    +0.213 HD
ENDBRANCH  14  16
BRANCH  15  18
ATOM     18  O   UNL     1      -8.347  -9.224   8.476  1.00  0.00    -0.385 OA
ATOM     19  H   UNL     1      -8.062  -8.288   8.410  1.00  0.00    +0.211 HD
ENDBRANCH  15  18
ENDBRANCH   7   8
ENDBRANCH   1   7
BRANCH   2  20
ATOM     20  O   UNL     1      -2.830 -10.566   4.452  1.00  0.00    -0.385 OA
ATOM     21  H   UNL     1      -3.088 -10.411   5.382  1.00  0.00    +0.211 HD
ENDBRANCH   2  20
BRANCH   3  22
ATOM     22  O   UNL     1      -2.574 -10.261   1.703  1.00  0.00    -0.387 OA
ATOM     23  H   UNL     1      -2.366  -9.495   2.279  1.00  0.00    +0.211 HD
ENDBRANCH   3  22
BRANCH   5  24
ATOM     24  C   UNL     1      -6.950  -9.089   2.432  1.00  0.00    +0.220 C 
BRANCH  24  25
ATOM     25  O   UNL     1      -7.775  -8.713   1.332  1.00  0.00    -0.245 OA
BRANCH  25  26
ATOM     26  S   UNL     1      -7.861  -7.136   0.955  1.00  0.00    +0.397 S 
ATOM     27  O   UNL     1      -8.254  -6.372   2.117  1.00  0.00    -0.169 OA
ATOM     28  O   UNL     1      -8.540  -7.009  -0.315  1.00  0.00    -0.169 OA
BRANCH  26  29
ATOM     29  O   UNL     1      -6.323  -6.785   0.635  1.00  0.00    -0.264 OA
ATOM     30  H   UNL     1      -6.309  -6.335  -0.234  1.00  0.00    +0.236 HD
ENDBRANCH  26  29
ENDBRANCH  25  26
ENDBRANCH  24  25
ENDBRANCH   5  24
BRANCH   4  31
ATOM     31  O   UNL     1      -4.723  -9.105   0.829  1.00  0.00    -0.387 OA
ATOM     32  H   UNL     1      -5.206  -8.488   1.424  1.00  0.00    +0.211 HD
ENDBRANCH   4  31
TORSDOF 11
ENDMDL
