MODEL 1
REMARK VINA RESULT:    -7.953      0.000      0.000
REMARK INTER + INTRA:         -12.673
REMARK INTER:                 -11.672
REMARK INTRA:                  -1.001
REMARK UNBOUND:                -1.001
REMARK SMILES O=S(=O)(O)OC[C@@H]1O[C@H](O[C@H]2[C@@H]3OC[C@H]2O[C@@H](O)[C@H]3O)[C@@H](O)[C@H](O)[C@@H]1O
REMARK SMILES IDX 9 1 21 2 23 3 25 4 7 5 8 6 10 7 11 8 14 9 15 10 13 11 16 12
REMARK SMILES IDX 12 13 17 14 19 15 18 16 20 18 22 20 24 22 6 24 5 25 2 26
REMARK SMILES IDX 1 27 3 28 4 29 26 31
REMARK H PARENT 18 17 20 19 22 21 24 23 4 30 26 32
ROOT
ATOM      1  C   UNL     1       3.197  12.170  -6.354  1.00  0.00    +0.282 C 
ATOM      2  C   UNL     1       3.348  13.486  -5.566  1.00  0.00    +0.202 C 
ATOM      3  C   UNL     1       2.720  14.602  -6.383  1.00  0.00    +0.179 C 
ATOM      4  C   UNL     1       1.216  14.347  -6.516  1.00  0.00    +0.177 C 
ATOM      5  C   UNL     1       0.870  12.847  -6.667  1.00  0.00    +0.180 C 
ATOM      6  O   UNL     1       1.996  12.067  -7.115  1.00  0.00    -0.341 OA
ENDROOT
BRANCH   1   7
ATOM      7  O   UNL     1       3.376  11.088  -5.436  1.00  0.00    -0.341 OA
BRANCH   7   8
ATOM      8  C   UNL     1       4.096   9.996  -5.999  1.00  0.00    +0.184 C 
ATOM      9  C   UNL     1       4.241   7.814  -6.844  1.00  0.00    +0.195 C 
ATOM     10  C   UNL     1       3.233   8.954  -6.694  1.00  0.00    +0.179 C 
ATOM     11  O   UNL     1       5.112   7.901  -5.687  1.00  0.00    -0.370 OA
ATOM     12  O   UNL     1       2.102   8.611  -5.873  1.00  0.00    -0.342 OA
ATOM     13  C   UNL     1       4.696   9.075  -4.942  1.00  0.00    +0.184 C 
ATOM     14  C   UNL     1       2.396   8.065  -4.591  1.00  0.00    +0.279 C 
ATOM     15  C   UNL     1       3.630   8.693  -3.906  1.00  0.00    +0.202 C 
BRANCH  14  16
ATOM     16  O   UNL     1       2.565   6.656  -4.722  1.00  0.00    -0.366 OA
ATOM     17  H   UNL     1       2.625   6.331  -3.806  1.00  0.00    +0.213 HD
ENDBRANCH  14  16
BRANCH  15  18
ATOM     18  O   UNL     1       4.182   7.799  -2.931  1.00  0.00    -0.385 OA
ATOM     19  H   UNL     1       4.964   7.412  -3.380  1.00  0.00    +0.211 HD
ENDBRANCH  15  18
ENDBRANCH   7   8
ENDBRANCH   1   7
BRANCH   2  20
ATOM     20  O   UNL     1       4.731  13.798  -5.325  1.00  0.00    -0.385 OA
ATOM     21  H   UNL     1       5.077  13.076  -4.764  1.00  0.00    +0.211 HD
ENDBRANCH   2  20
BRANCH   3  22
ATOM     22  O   UNL     1       2.931  15.872  -5.743  1.00  0.00    -0.387 OA
ATOM     23  H   UNL     1       3.844  16.129  -5.990  1.00  0.00    +0.211 HD
ENDBRANCH   3  22
BRANCH   5  24
ATOM     24  C   UNL     1       0.182  12.210  -5.446  1.00  0.00    +0.220 C 
BRANCH  24  25
ATOM     25  O   UNL     1      -0.101  10.845  -5.747  1.00  0.00    -0.245 OA
BRANCH  25  26
ATOM     26  S   UNL     1      -1.402  10.170  -5.051  1.00  0.00    +0.397 S 
ATOM     27  O   UNL     1      -1.002   9.031  -4.255  1.00  0.00    -0.169 OA
ATOM     28  O   UNL     1      -2.454  10.088  -6.039  1.00  0.00    -0.169 OA
BRANCH  26  29
ATOM     29  O   UNL     1      -1.879  11.329  -4.040  1.00  0.00    -0.264 OA
ATOM     30  H   UNL     1      -2.316  10.886  -3.284  1.00  0.00    +0.236 HD
ENDBRANCH  26  29
ENDBRANCH  25  26
ENDBRANCH  24  25
ENDBRANCH   5  24
BRANCH   4  31
ATOM     31  O   UNL     1       0.541  14.930  -5.395  1.00  0.00    -0.387 OA
ATOM     32  H   UNL     1       0.551  14.230  -4.705  1.00  0.00    +0.211 HD
ENDBRANCH   4  31
TORSDOF 11
ENDMDL
MODEL 2
REMARK VINA RESULT:    -7.266      2.273      3.288
REMARK INTER + INTRA:         -11.665
REMARK INTER:                 -11.004
REMARK INTRA:                  -0.662
REMARK UNBOUND:                -1.001
REMARK SMILES O=S(=O)(O)OC[C@@H]1O[C@H](O[C@H]2[C@@H]3OC[C@H]2O[C@@H](O)[C@H]3O)[C@@H](O)[C@H](O)[C@@H]1O
REMARK SMILES IDX 9 1 21 2 23 3 25 4 7 5 8 6 10 7 11 8 14 9 15 10 13 11 16 12
REMARK SMILES IDX 12 13 17 14 19 15 18 16 20 18 22 20 24 22 6 24 5 25 2 26
REMARK SMILES IDX 1 27 3 28 4 29 26 31
REMARK H PARENT 18 17 20 19 22 21 24 23 4 30 26 32
ROOT
ATOM      1  C   UNL     1       3.623  11.614  -5.774  1.00  0.00    +0.282 C 
ATOM      2  C   UNL     1       3.321  12.183  -4.374  1.00  0.00    +0.202 C 
ATOM      3  C   UNL     1       3.911  13.581  -4.293  1.00  0.00    +0.179 C 
ATOM      4  C   UNL     1       3.196  14.491  -5.294  1.00  0.00    +0.177 C 
ATOM      5  C   UNL     1       2.830  13.768  -6.613  1.00  0.00    +0.180 C 
ATOM      6  O   UNL     1       3.618  12.581  -6.823  1.00  0.00    -0.341 OA
ENDROOT
BRANCH   1   7
ATOM      7  O   UNL     1       2.725  10.526  -6.008  1.00  0.00    -0.341 OA
BRANCH   7   8
ATOM      8  C   UNL     1       3.377   9.366  -6.515  1.00  0.00    +0.184 C 
ATOM      9  C   UNL     1       3.474   7.071  -6.981  1.00  0.00    +0.195 C 
ATOM     10  C   UNL     1       2.452   8.197  -6.816  1.00  0.00    +0.179 C 
ATOM     11  O   UNL     1       4.560   7.386  -6.072  1.00  0.00    -0.370 OA
ATOM     12  O   UNL     1       1.540   7.983  -5.725  1.00  0.00    -0.342 OA
ATOM     13  C   UNL     1       4.238   8.666  -5.469  1.00  0.00    +0.184 C 
ATOM     14  C   UNL     1       2.126   7.686  -4.462  1.00  0.00    +0.279 C 
ATOM     15  C   UNL     1       3.436   8.456  -4.178  1.00  0.00    +0.202 C 
BRANCH  14  16
ATOM     16  O   UNL     1       2.349   6.281  -4.381  1.00  0.00    -0.366 OA
ATOM     17  H   UNL     1       1.458   5.890  -4.411  1.00  0.00    +0.213 HD
ENDBRANCH  14  16
BRANCH  15  18
ATOM     18  O   UNL     1       4.231   7.767  -3.205  1.00  0.00    -0.385 OA
ATOM     19  H   UNL     1       5.153   8.008  -3.439  1.00  0.00    +0.211 HD
ENDBRANCH  15  18
ENDBRANCH   7   8
ENDBRANCH   1   7
BRANCH   2  20
ATOM     20  O   UNL     1       3.895  11.367  -3.340  1.00  0.00    -0.385 OA
ATOM     21  H   UNL     1       3.498  10.480  -3.444  1.00  0.00    +0.211 HD
ENDBRANCH   2  20
BRANCH   3  22
ATOM     22  O   UNL     1       3.752  14.116  -2.968  1.00  0.00    -0.387 OA
ATOM     23  H   UNL     1       4.655  14.381  -2.695  1.00  0.00    +0.211 HD
ENDBRANCH   3  22
BRANCH   5  24
ATOM     24  C   UNL     1       1.327  13.502  -6.815  1.00  0.00    +0.220 C 
BRANCH  24  25
ATOM     25  O   UNL     1       0.867  14.307  -7.899  1.00  0.00    -0.245 OA
BRANCH  25  26
ATOM     26  S   UNL     1       0.510  15.860  -7.590  1.00  0.00    +0.397 S 
ATOM     27  O   UNL     1      -0.525  16.317  -8.490  1.00  0.00    -0.169 OA
ATOM     28  O   UNL     1       1.747  16.584  -7.409  1.00  0.00    -0.169 OA
BRANCH  26  29
ATOM     29  O   UNL     1      -0.131  15.768  -6.116  1.00  0.00    -0.264 OA
ATOM     30  H   UNL     1      -0.636  14.931  -6.076  1.00  0.00    +0.236 HD
ENDBRANCH  26  29
ENDBRANCH  25  26
ENDBRANCH  24  25
ENDBRANCH   5  24
BRANCH   4  31
ATOM     31  O   UNL     1       2.039  15.058  -4.670  1.00  0.00    -0.387 OA
ATOM     32  H   UNL     1       2.136  14.841  -3.716  1.00  0.00    +0.211 HD
ENDBRANCH   4  31
TORSDOF 11
ENDMDL
MODEL 3
REMARK VINA RESULT:    -7.016     22.938     25.499
REMARK INTER + INTRA:         -11.298
REMARK INTER:                  -9.954
REMARK INTRA:                  -1.344
REMARK UNBOUND:                -1.001
REMARK SMILES O=S(=O)(O)OC[C@@H]1O[C@H](O[C@H]2[C@@H]3OC[C@H]2O[C@@H](O)[C@H]3O)[C@@H](O)[C@H](O)[C@@H]1O
REMARK SMILES IDX 9 1 21 2 23 3 25 4 7 5 8 6 10 7 11 8 14 9 15 10 13 11 16 12
REMARK SMILES IDX 12 13 17 14 19 15 18 16 20 18 22 20 24 22 6 24 5 25 2 26
REMARK SMILES IDX 1 27 3 28 4 29 26 31
REMARK H PARENT 18 17 20 19 22 21 24 23 4 30 26 32
ROOT
ATOM      1  C   UNL     1      -6.266  -7.329  10.239  1.00  0.00    +0.282 C 
ATOM      2  C   UNL     1      -5.592  -8.040  11.429  1.00  0.00    +0.202 C 
ATOM      3  C   UNL     1      -5.500  -9.521  11.105  1.00  0.00    +0.179 C 
ATOM      4  C   UNL     1      -4.574  -9.720   9.902  1.00  0.00    +0.177 C 
ATOM      5  C   UNL     1      -4.709  -8.597   8.846  1.00  0.00    +0.180 C 
ATOM      6  O   UNL     1      -5.955  -7.883   8.962  1.00  0.00    -0.341 OA
ENDROOT
BRANCH   1   7
ATOM      7  O   UNL     1      -5.965  -5.934  10.335  1.00  0.00    -0.341 OA
BRANCH   7   8
ATOM      8  C   UNL     1      -7.121  -5.129  10.540  1.00  0.00    +0.184 C 
ATOM      9  C   UNL     1      -8.258  -3.079  10.526  1.00  0.00    +0.195 C 
ATOM     10  C   UNL     1      -7.097  -3.787   9.826  1.00  0.00    +0.179 C 
ATOM     11  O   UNL     1      -8.265  -3.582  11.887  1.00  0.00    -0.370 OA
ATOM     12  O   UNL     1      -5.830  -3.135  10.024  1.00  0.00    -0.342 OA
ATOM     13  C   UNL     1      -7.223  -4.589  11.962  1.00  0.00    +0.184 C 
ATOM     14  C   UNL     1      -5.470  -2.853  11.373  1.00  0.00    +0.279 C 
ATOM     15  C   UNL     1      -5.894  -3.946  12.380  1.00  0.00    +0.202 C 
BRANCH  14  16
ATOM     16  O   UNL     1      -6.028  -1.595  11.742  1.00  0.00    -0.366 OA
ATOM     17  H   UNL     1      -5.376  -1.207  12.352  1.00  0.00    +0.213 HD
ENDBRANCH  14  16
BRANCH  15  18
ATOM     18  O   UNL     1      -5.997  -3.406  13.704  1.00  0.00    -0.385 OA
ATOM     19  H   UNL     1      -5.659  -4.126  14.280  1.00  0.00    +0.211 HD
ENDBRANCH  15  18
ENDBRANCH   7   8
ENDBRANCH   1   7
BRANCH   2  20
ATOM     20  O   UNL     1      -6.347  -7.866  12.640  1.00  0.00    -0.385 OA
ATOM     21  H   UNL     1      -5.855  -7.213  13.175  1.00  0.00    +0.211 HD
ENDBRANCH   2  20
BRANCH   3  22
ATOM     22  O   UNL     1      -4.977 -10.248  12.230  1.00  0.00    -0.387 OA
ATOM     23  H   UNL     1      -4.557  -9.566  12.796  1.00  0.00    +0.211 HD
ENDBRANCH   3  22
BRANCH   5  24
ATOM     24  C   UNL     1      -3.506  -7.641   8.752  1.00  0.00    +0.220 C 
BRANCH  24  25
ATOM     25  O   UNL     1      -2.717  -8.016   7.625  1.00  0.00    -0.245 OA
BRANCH  25  26
ATOM     26  S   UNL     1      -1.230  -8.603   7.904  1.00  0.00    +0.397 S 
ATOM     27  O   UNL     1      -0.278  -7.981   7.012  1.00  0.00    -0.169 OA
ATOM     28  O   UNL     1      -1.328 -10.038   8.047  1.00  0.00    -0.169 OA
BRANCH  26  29
ATOM     29  O   UNL     1      -0.931  -8.062   9.391  1.00  0.00    -0.264 OA
ATOM     30  H   UNL     1      -1.440  -8.628  10.007  1.00  0.00    +0.236 HD
ENDBRANCH  26  29
ENDBRANCH  25  26
ENDBRANCH  24  25
ENDBRANCH   5  24
BRANCH   4  31
ATOM     31  O   UNL     1      -3.224  -9.844  10.364  1.00  0.00    -0.387 OA
ATOM     32  H   UNL     1      -3.169  -9.244  11.141  1.00  0.00    +0.211 HD
ENDBRANCH   4  31
TORSDOF 11
ENDMDL
MODEL 4
REMARK VINA RESULT:    -6.972     22.901     24.389
REMARK INTER + INTRA:         -11.234
REMARK INTER:                 -10.296
REMARK INTRA:                  -0.939
REMARK UNBOUND:                -1.001
REMARK SMILES O=S(=O)(O)OC[C@@H]1O[C@H](O[C@H]2[C@@H]3OC[C@H]2O[C@@H](O)[C@H]3O)[C@@H](O)[C@H](O)[C@@H]1O
REMARK SMILES IDX 9 1 21 2 23 3 25 4 7 5 8 6 10 7 11 8 14 9 15 10 13 11 16 12
REMARK SMILES IDX 12 13 17 14 19 15 18 16 20 18 22 20 24 22 6 24 5 25 2 26
REMARK SMILES IDX 1 27 3 28 4 29 26 31
REMARK H PARENT 18 17 20 19 22 21 24 23 4 30 26 32
ROOT
ATOM      1  C   UNL     1      -6.429  -6.862   9.753  1.00  0.00    +0.282 C 
ATOM      2  C   UNL     1      -7.044  -6.538   8.377  1.00  0.00    +0.202 C 
ATOM      3  C   UNL     1      -8.448  -6.002   8.600  1.00  0.00    +0.179 C 
ATOM      4  C   UNL     1      -8.367  -4.676   9.362  1.00  0.00    +0.177 C 
ATOM      5  C   UNL     1      -7.241  -4.657  10.423  1.00  0.00    +0.180 C 
ATOM      6  O   UNL     1      -6.825  -5.982  10.803  1.00  0.00    -0.341 OA
ENDROOT
BRANCH   1   7
ATOM      7  O   UNL     1      -5.010  -6.941   9.590  1.00  0.00    -0.341 OA
BRANCH   7   8
ATOM      8  C   UNL     1      -4.511  -8.270   9.700  1.00  0.00    +0.184 C 
ATOM      9  C   UNL     1      -2.931  -9.845  10.418  1.00  0.00    +0.195 C 
ATOM     10  C   UNL     1      -3.489  -8.476  10.808  1.00  0.00    +0.179 C 
ATOM     11  O   UNL     1      -2.983  -9.897   8.969  1.00  0.00    -0.370 OA
ATOM     12  O   UNL     1      -2.501  -7.429  10.781  1.00  0.00    -0.342 OA
ATOM     13  C   UNL     1      -3.613  -8.664   8.533  1.00  0.00    +0.184 C 
ATOM     14  C   UNL     1      -1.742  -7.310   9.582  1.00  0.00    +0.279 C 
ATOM     15  C   UNL     1      -2.550  -7.583   8.294  1.00  0.00    +0.202 C 
BRANCH  14  16
ATOM     16  O   UNL     1      -0.622  -8.188   9.661  1.00  0.00    -0.366 OA
ATOM     17  H   UNL     1      -0.981  -9.007  10.046  1.00  0.00    +0.213 HD
ENDBRANCH  14  16
BRANCH  15  18
ATOM     18  O   UNL     1      -1.683  -7.967   7.220  1.00  0.00    -0.385 OA
ATOM     19  H   UNL     1      -1.221  -8.763   7.561  1.00  0.00    +0.211 HD
ENDBRANCH  15  18
ENDBRANCH   7   8
ENDBRANCH   1   7
BRANCH   2  20
ATOM     20  O   UNL     1      -7.112  -7.708   7.544  1.00  0.00    -0.385 OA
ATOM     21  H   UNL     1      -7.997  -8.095   7.693  1.00  0.00    +0.211 HD
ENDBRANCH   2  20
BRANCH   3  22
ATOM     22  O   UNL     1      -9.108  -5.785   7.342  1.00  0.00    -0.387 OA
ATOM     23  H   UNL     1      -9.454  -4.870   7.395  1.00  0.00    +0.211 HD
ENDBRANCH   3  22
BRANCH   5  24
ATOM     24  C   UNL     1      -6.041  -3.754  10.085  1.00  0.00    +0.220 C 
BRANCH  24  25
ATOM     25  O   UNL     1      -5.063  -3.897  11.112  1.00  0.00    -0.245 OA
BRANCH  25  26
ATOM     26  S   UNL     1      -5.108  -2.850  12.352  1.00  0.00    +0.397 S 
ATOM     27  O   UNL     1      -3.782  -2.340  12.616  1.00  0.00    -0.169 OA
ATOM     28  O   UNL     1      -5.937  -3.415  13.393  1.00  0.00    -0.169 OA
BRANCH  26  29
ATOM     29  O   UNL     1      -5.983  -1.646  11.740  1.00  0.00    -0.264 OA
ATOM     30  H   UNL     1      -6.767  -2.050  11.315  1.00  0.00    +0.236 HD
ENDBRANCH  26  29
ENDBRANCH  25  26
ENDBRANCH  24  25
ENDBRANCH   5  24
BRANCH   4  31
ATOM     31  O   UNL     1      -8.220  -3.604   8.424  1.00  0.00    -0.387 OA
ATOM     32  H   UNL     1      -9.130  -3.252   8.299  1.00  0.00    +0.211 HD
ENDBRANCH   4  31
TORSDOF 11
ENDMDL
MODEL 5
REMARK VINA RESULT:    -6.676     24.555     27.182
REMARK INTER + INTRA:         -10.800
REMARK INTER:                  -9.036
REMARK INTRA:                  -1.764
REMARK UNBOUND:                -1.001
REMARK SMILES O=S(=O)(O)OC[C@@H]1O[C@H](O[C@H]2[C@@H]3OC[C@H]2O[C@@H](O)[C@H]3O)[C@@H](O)[C@H](O)[C@@H]1O
REMARK SMILES IDX 9 1 21 2 23 3 25 4 7 5 8 6 10 7 11 8 14 9 15 10 13 11 16 12
REMARK SMILES IDX 12 13 17 14 19 15 18 16 20 18 22 20 24 22 6 24 5 25 2 26
REMARK SMILES IDX 1 27 3 28 4 29 26 31
REMARK H PARENT 18 17 20 19 22 21 24 23 4 30 26 32
ROOT
ATOM      1  C   UNL     1      -6.324 -10.852 -17.514  1.00  0.00    +0.282 C 
ATOM      2  C   UNL     1      -5.848 -11.065 -16.064  1.00  0.00    +0.202 C 
ATOM      3  C   UNL     1      -7.062 -11.389 -15.210  1.00  0.00    +0.179 C 
ATOM      4  C   UNL     1      -7.663 -12.720 -15.668  1.00  0.00    +0.177 C 
ATOM      5  C   UNL     1      -7.590 -12.918 -17.201  1.00  0.00    +0.180 C 
ATOM      6  O   UNL     1      -7.421 -11.674 -17.907  1.00  0.00    -0.341 OA
ENDROOT
BRANCH   1   7
ATOM      7  O   UNL     1      -5.186 -10.984 -18.372  1.00  0.00    -0.341 OA
BRANCH   7   8
ATOM      8  C   UNL     1      -5.023  -9.877 -19.252  1.00  0.00    +0.184 C 
ATOM      9  C   UNL     1      -4.065  -8.824 -21.114  1.00  0.00    +0.195 C 
ATOM     10  C   UNL     1      -4.414 -10.222 -20.602  1.00  0.00    +0.179 C 
ATOM     11  O   UNL     1      -3.721  -8.046 -19.938  1.00  0.00    -0.370 OA
ATOM     12  O   UNL     1      -3.265 -11.070 -20.433  1.00  0.00    -0.342 OA
ATOM     13  C   UNL     1      -3.937  -8.910 -18.792  1.00  0.00    +0.184 C 
ATOM     14  C   UNL     1      -2.195 -10.536 -19.661  1.00  0.00    +0.279 C 
ATOM     15  C   UNL     1      -2.651  -9.679 -18.459  1.00  0.00    +0.202 C 
BRANCH  14  16
ATOM     16  O   UNL     1      -1.347  -9.777 -20.518  1.00  0.00    -0.366 OA
ATOM     17  H   UNL     1      -1.518 -10.133 -21.409  1.00  0.00    +0.213 HD
ENDBRANCH  14  16
BRANCH  15  18
ATOM     18  O   UNL     1      -1.617  -8.769 -18.060  1.00  0.00    -0.385 OA
ATOM     19  H   UNL     1      -0.852  -9.351 -17.866  1.00  0.00    +0.211 HD
ENDBRANCH  15  18
ENDBRANCH   7   8
ENDBRANCH   1   7
BRANCH   2  20
ATOM     20  O   UNL     1      -5.204  -9.889 -15.544  1.00  0.00    -0.385 OA
ATOM     21  H   UNL     1      -5.394  -9.878 -14.585  1.00  0.00    +0.211 HD
ENDBRANCH   2  20
BRANCH   3  22
ATOM     22  O   UNL     1      -6.688 -11.490 -13.825  1.00  0.00    -0.387 OA
ATOM     23  H   UNL     1      -6.867 -10.601 -13.452  1.00  0.00    +0.211 HD
ENDBRANCH   3  22
BRANCH   5  24
ATOM     24  C   UNL     1      -6.587 -13.986 -17.674  1.00  0.00    +0.220 C 
BRANCH  24  25
ATOM     25  O   UNL     1      -6.770 -14.191 -19.073  1.00  0.00    -0.245 OA
BRANCH  25  26
ATOM     26  S   UNL     1      -5.444 -14.297 -20.003  1.00  0.00    +0.397 S 
ATOM     27  O   UNL     1      -5.621 -13.516 -21.206  1.00  0.00    -0.169 OA
ATOM     28  O   UNL     1      -5.022 -15.679 -20.036  1.00  0.00    -0.169 OA
BRANCH  26  29
ATOM     29  O   UNL     1      -4.341 -13.554 -19.096  1.00  0.00    -0.264 OA
ATOM     30  H   UNL     1      -3.802 -13.001 -19.698  1.00  0.00    +0.236 HD
ENDBRANCH  26  29
ENDBRANCH  25  26
ENDBRANCH  24  25
ENDBRANCH   5  24
BRANCH   4  31
ATOM     31  O   UNL     1      -7.018 -13.791 -14.971  1.00  0.00    -0.387 OA
ATOM     32  H   UNL     1      -7.751 -14.372 -14.668  1.00  0.00    +0.211 HD
ENDBRANCH   4  31
TORSDOF 11
ENDMDL
MODEL 6
REMARK VINA RESULT:    -6.599     22.867     24.515
REMARK INTER + INTRA:         -10.686
REMARK INTER:                  -9.668
REMARK INTRA:                  -1.018
REMARK UNBOUND:                -1.001
REMARK SMILES O=S(=O)(O)OC[C@@H]1O[C@H](O[C@H]2[C@@H]3OC[C@H]2O[C@@H](O)[C@H]3O)[C@@H](O)[C@H](O)[C@@H]1O
REMARK SMILES IDX 9 1 21 2 23 3 25 4 7 5 8 6 10 7 11 8 14 9 15 10 13 11 16 12
REMARK SMILES IDX 12 13 17 14 19 15 18 16 20 18 22 20 24 22 6 24 5 25 2 26
REMARK SMILES IDX 1 27 3 28 4 29 26 31
REMARK H PARENT 18 17 20 19 22 21 24 23 4 30 26 32
ROOT
ATOM      1  C   UNL     1      -8.381  -6.691   8.877  1.00  0.00    +0.282 C 
ATOM      2  C   UNL     1      -8.866  -6.016   7.579  1.00  0.00    +0.202 C 
ATOM      3  C   UNL     1     -10.054  -5.134   7.920  1.00  0.00    +0.179 C 
ATOM      4  C   UNL     1      -9.597  -4.006   8.849  1.00  0.00    +0.177 C 
ATOM      5  C   UNL     1      -8.522  -4.460   9.864  1.00  0.00    +0.180 C 
ATOM      6  O   UNL     1      -8.511  -5.889  10.049  1.00  0.00    -0.341 OA
ENDROOT
BRANCH   1   7
ATOM      7  O   UNL     1      -7.045  -7.153   8.658  1.00  0.00    -0.341 OA
BRANCH   7   8
ATOM      8  C   UNL     1      -6.627  -8.119   9.616  1.00  0.00    +0.184 C 
ATOM      9  C   UNL     1      -5.314  -8.819  11.427  1.00  0.00    +0.195 C 
ATOM     10  C   UNL     1      -5.909  -7.544  10.827  1.00  0.00    +0.179 C 
ATOM     11  O   UNL     1      -5.016  -9.685  10.302  1.00  0.00    -0.370 OA
ATOM     12  O   UNL     1      -4.914  -6.590  10.416  1.00  0.00    -0.342 OA
ATOM     13  C   UNL     1      -5.485  -8.996   9.114  1.00  0.00    +0.184 C 
ATOM     14  C   UNL     1      -3.885  -7.080   9.563  1.00  0.00    +0.279 C 
ATOM     15  C   UNL     1      -4.365  -8.124   8.530  1.00  0.00    +0.202 C 
BRANCH  14  16
ATOM     16  O   UNL     1      -2.843  -7.624  10.370  1.00  0.00    -0.366 OA
ATOM     17  H   UNL     1      -2.669  -8.501   9.985  1.00  0.00    +0.213 HD
ENDBRANCH  14  16
BRANCH  15  18
ATOM     18  O   UNL     1      -3.275  -8.944   8.089  1.00  0.00    -0.385 OA
ATOM     19  H   UNL     1      -3.643  -9.853   8.101  1.00  0.00    +0.211 HD
ENDBRANCH  15  18
ENDBRANCH   7   8
ENDBRANCH   1   7
BRANCH   2  20
ATOM     20  O   UNL     1      -9.265  -6.989   6.599  1.00  0.00    -0.385 OA
ATOM     21  H   UNL     1     -10.021  -7.471   6.989  1.00  0.00    +0.211 HD
ENDBRANCH   2  20
BRANCH   3  22
ATOM     22  O   UNL     1     -10.615  -4.564   6.725  1.00  0.00    -0.387 OA
ATOM     23  H   UNL     1     -11.584  -4.667   6.829  1.00  0.00    +0.211 HD
ENDBRANCH   3  22
BRANCH   5  24
ATOM     24  C   UNL     1      -7.108  -3.905   9.610  1.00  0.00    +0.220 C 
BRANCH  24  25
ATOM     25  O   UNL     1      -6.976  -2.669  10.309  1.00  0.00    -0.245 OA
BRANCH  25  26
ATOM     26  S   UNL     1      -5.830  -2.567  11.455  1.00  0.00    +0.397 S 
ATOM     27  O   UNL     1      -4.531  -2.829  10.879  1.00  0.00    -0.169 OA
ATOM     28  O   UNL     1      -6.304  -3.256  12.633  1.00  0.00    -0.169 OA
BRANCH  26  29
ATOM     29  O   UNL     1      -5.886  -1.005  11.844  1.00  0.00    -0.264 OA
ATOM     30  H   UNL     1      -6.689  -0.875  12.387  1.00  0.00    +0.236 HD
ENDBRANCH  26  29
ENDBRANCH  25  26
ENDBRANCH  24  25
ENDBRANCH   5  24
BRANCH   4  31
ATOM     31  O   UNL     1      -9.139  -2.903   8.059  1.00  0.00    -0.387 OA
ATOM     32  H   UNL     1      -9.284  -2.112   8.624  1.00  0.00    +0.211 HD
ENDBRANCH   4  31
TORSDOF 11
ENDMDL
MODEL 7
REMARK VINA RESULT:    -6.506     23.045     24.630
REMARK INTER + INTRA:         -10.550
REMARK INTER:                  -9.621
REMARK INTRA:                  -0.929
REMARK UNBOUND:                -1.001
REMARK SMILES O=S(=O)(O)OC[C@@H]1O[C@H](O[C@H]2[C@@H]3OC[C@H]2O[C@@H](O)[C@H]3O)[C@@H](O)[C@H](O)[C@@H]1O
REMARK SMILES IDX 9 1 21 2 23 3 25 4 7 5 8 6 10 7 11 8 14 9 15 10 13 11 16 12
REMARK SMILES IDX 12 13 17 14 19 15 18 16 20 18 22 20 24 22 6 24 5 25 2 26
REMARK SMILES IDX 1 27 3 28 4 29 26 31
REMARK H PARENT 18 17 20 19 22 21 24 23 4 30 26 32
ROOT
ATOM      1  C   UNL     1      -6.807  -7.626   9.459  1.00  0.00    +0.282 C 
ATOM      2  C   UNL     1      -7.272  -7.639   7.990  1.00  0.00    +0.202 C 
ATOM      3  C   UNL     1      -8.765  -7.359   7.963  1.00  0.00    +0.179 C 
ATOM      4  C   UNL     1      -9.024  -5.944   8.487  1.00  0.00    +0.177 C 
ATOM      5  C   UNL     1      -8.077  -5.547   9.644  1.00  0.00    +0.180 C 
ATOM      6  O   UNL     1      -7.493  -6.693  10.292  1.00  0.00    -0.341 OA
ENDROOT
BRANCH   1   7
ATOM      7  O   UNL     1      -5.388  -7.450   9.468  1.00  0.00    -0.341 OA
BRANCH   7   8
ATOM      8  C   UNL     1      -4.685  -8.627   9.851  1.00  0.00    +0.184 C 
ATOM      9  C   UNL     1      -2.898  -9.740  10.883  1.00  0.00    +0.195 C 
ATOM     10  C   UNL     1      -3.684  -8.432  10.980  1.00  0.00    +0.179 C 
ATOM     11  O   UNL     1      -2.887 -10.092   9.475  1.00  0.00    -0.370 OA
ATOM     12  O   UNL     1      -2.879  -7.264  10.741  1.00  0.00    -0.342 OA
ATOM     13  C   UNL     1      -3.692  -9.095   8.793  1.00  0.00    +0.184 C 
ATOM     14  C   UNL     1      -2.106  -7.265   9.546  1.00  0.00    +0.279 C 
ATOM     15  C   UNL     1      -2.811  -7.923   8.339  1.00  0.00    +0.202 C 
BRANCH  14  16
ATOM     16  O   UNL     1      -0.862  -7.910   9.807  1.00  0.00    -0.366 OA
ATOM     17  H   UNL     1      -0.284  -7.631   9.074  1.00  0.00    +0.213 HD
ENDBRANCH  14  16
BRANCH  15  18
ATOM     18  O   UNL     1      -1.853  -8.368   7.369  1.00  0.00    -0.385 OA
ATOM     19  H   UNL     1      -1.480  -9.186   7.763  1.00  0.00    +0.211 HD
ENDBRANCH  15  18
ENDBRANCH   7   8
ENDBRANCH   1   7
BRANCH   2  20
ATOM     20  O   UNL     1      -7.018  -8.911   7.370  1.00  0.00    -0.385 OA
ATOM     21  H   UNL     1      -7.139  -8.772   6.410  1.00  0.00    +0.211 HD
ENDBRANCH   2  20
BRANCH   3  22
ATOM     22  O   UNL     1      -9.271  -7.467   6.621  1.00  0.00    -0.387 OA
ATOM     23  H   UNL     1      -9.776  -8.307   6.611  1.00  0.00    +0.211 HD
ENDBRANCH   3  22
BRANCH   5  24
ATOM     24  C   UNL     1      -7.018  -4.488   9.287  1.00  0.00    +0.220 C 
BRANCH  24  25
ATOM     25  O   UNL     1      -7.083  -3.440  10.251  1.00  0.00    -0.245 OA
BRANCH  25  26
ATOM     26  S   UNL     1      -8.470  -2.605  10.369  1.00  0.00    +0.397 S 
ATOM     27  O   UNL     1      -9.246  -3.091  11.488  1.00  0.00    -0.169 OA
ATOM     28  O   UNL     1      -9.031  -2.468   9.044  1.00  0.00    -0.169 OA
BRANCH  26  29
ATOM     29  O   UNL     1      -7.942  -1.131  10.744  1.00  0.00    -0.264 OA
ATOM     30  H   UNL     1      -7.658  -1.160  11.681  1.00  0.00    +0.236 HD
ENDBRANCH  26  29
ENDBRANCH  25  26
ENDBRANCH  24  25
ENDBRANCH   5  24
BRANCH   4  31
ATOM     31  O   UNL     1      -8.937  -5.017   7.398  1.00  0.00    -0.387 OA
ATOM     32  H   UNL     1      -8.258  -4.364   7.678  1.00  0.00    +0.211 HD
ENDBRANCH   4  31
TORSDOF 11
ENDMDL
MODEL 8
REMARK VINA RESULT:    -6.470     24.370     26.855
REMARK INTER + INTRA:         -10.498
REMARK INTER:                  -8.680
REMARK INTRA:                  -1.817
REMARK UNBOUND:                -1.001
REMARK SMILES O=S(=O)(O)OC[C@@H]1O[C@H](O[C@H]2[C@@H]3OC[C@H]2O[C@@H](O)[C@H]3O)[C@@H](O)[C@H](O)[C@@H]1O
REMARK SMILES IDX 9 1 21 2 23 3 25 4 7 5 8 6 10 7 11 8 14 9 15 10 13 11 16 12
REMARK SMILES IDX 12 13 17 14 19 15 18 16 20 18 22 20 24 22 6 24 5 25 2 26
REMARK SMILES IDX 1 27 3 28 4 29 26 31
REMARK H PARENT 18 17 20 19 22 21 24 23 4 30 26 32
ROOT
ATOM      1  C   UNL     1      -5.423 -12.064 -17.038  1.00  0.00    +0.282 C 
ATOM      2  C   UNL     1      -5.710 -11.391 -15.682  1.00  0.00    +0.202 C 
ATOM      3  C   UNL     1      -6.632 -12.299 -14.888  1.00  0.00    +0.179 C 
ATOM      4  C   UNL     1      -5.904 -13.609 -14.574  1.00  0.00    +0.177 C 
ATOM      5  C   UNL     1      -4.988 -14.081 -15.729  1.00  0.00    +0.180 C 
ATOM      6  O   UNL     1      -5.347 -13.488 -16.991  1.00  0.00    -0.341 OA
ENDROOT
BRANCH   1   7
ATOM      7  O   UNL     1      -4.251 -11.457 -17.589  1.00  0.00    -0.341 OA
BRANCH   7   8
ATOM      8  C   UNL     1      -4.546 -10.436 -18.536  1.00  0.00    +0.184 C 
ATOM      9  C   UNL     1      -4.288  -9.394 -20.620  1.00  0.00    +0.195 C 
ATOM     10  C   UNL     1      -4.179 -10.775 -19.973  1.00  0.00    +0.179 C 
ATOM     11  O   UNL     1      -3.893  -8.445 -19.596  1.00  0.00    -0.370 OA
ATOM     12  O   UNL     1      -2.853 -11.331 -20.034  1.00  0.00    -0.342 OA
ATOM     13  C   UNL     1      -3.647  -9.214 -18.391  1.00  0.00    +0.184 C 
ATOM     14  C   UNL     1      -1.799 -10.499 -19.560  1.00  0.00    +0.279 C 
ATOM     15  C   UNL     1      -2.175  -9.645 -18.329  1.00  0.00    +0.202 C 
BRANCH  14  16
ATOM     16  O   UNL     1      -1.359  -9.664 -20.628  1.00  0.00    -0.366 OA
ATOM     17  H   UNL     1      -1.857  -9.978 -21.404  1.00  0.00    +0.213 HD
ENDBRANCH  14  16
BRANCH  15  18
ATOM     18  O   UNL     1      -1.324  -8.496 -18.227  1.00  0.00    -0.385 OA
ATOM     19  H   UNL     1      -1.401  -8.065 -19.105  1.00  0.00    +0.211 HD
ENDBRANCH  15  18
ENDBRANCH   7   8
ENDBRANCH   1   7
BRANCH   2  20
ATOM     20  O   UNL     1      -6.342 -10.111 -15.855  1.00  0.00    -0.385 OA
ATOM     21  H   UNL     1      -6.579  -9.802 -14.958  1.00  0.00    +0.211 HD
ENDBRANCH   2  20
BRANCH   3  22
ATOM     22  O   UNL     1      -7.020 -11.667 -13.656  1.00  0.00    -0.387 OA
ATOM     23  H   UNL     1      -7.896 -12.052 -13.442  1.00  0.00    +0.211 HD
ENDBRANCH   3  22
BRANCH   5  24
ATOM     24  C   UNL     1      -3.478 -13.966 -15.451  1.00  0.00    +0.220 C 
BRANCH  24  25
ATOM     25  O   UNL     1      -2.788 -14.848 -16.333  1.00  0.00    -0.245 OA
BRANCH  25  26
ATOM     26  S   UNL     1      -1.818 -14.190 -17.456  1.00  0.00    +0.397 S 
ATOM     27  O   UNL     1      -0.886 -15.180 -17.947  1.00  0.00    -0.169 OA
ATOM     28  O   UNL     1      -1.386 -12.895 -16.980  1.00  0.00    -0.169 OA
BRANCH  26  29
ATOM     29  O   UNL     1      -2.855 -13.864 -18.643  1.00  0.00    -0.264 OA
ATOM     30  H   UNL     1      -3.663 -14.388 -18.468  1.00  0.00    +0.236 HD
ENDBRANCH  26  29
ENDBRANCH  25  26
ENDBRANCH  24  25
ENDBRANCH   5  24
BRANCH   4  31
ATOM     31  O   UNL     1      -5.172 -13.459 -13.353  1.00  0.00    -0.387 OA
ATOM     32  H   UNL     1      -5.422 -12.569 -13.018  1.00  0.00    +0.211 HD
ENDBRANCH   4  31
TORSDOF 11
ENDMDL
MODEL 9
REMARK VINA RESULT:    -6.263     24.345     25.986
REMARK INTER + INTRA:         -10.194
REMARK INTER:                  -9.342
REMARK INTRA:                  -0.852
REMARK UNBOUND:                -1.001
REMARK SMILES O=S(=O)(O)OC[C@@H]1O[C@H](O[C@H]2[C@@H]3OC[C@H]2O[C@@H](O)[C@H]3O)[C@@H](O)[C@H](O)[C@@H]1O
REMARK SMILES IDX 9 1 21 2 23 3 25 4 7 5 8 6 10 7 11 8 14 9 15 10 13 11 16 12
REMARK SMILES IDX 12 13 17 14 19 15 18 16 20 18 22 20 24 22 6 24 5 25 2 26
REMARK SMILES IDX 1 27 3 28 4 29 26 31
REMARK H PARENT 18 17 20 19 22 21 24 23 4 30 26 32
ROOT
ATOM      1  C   UNL     1      -2.094 -11.189 -18.474  1.00  0.00    +0.282 C 
ATOM      2  C   UNL     1      -2.296  -9.676 -18.263  1.00  0.00    +0.202 C 
ATOM      3  C   UNL     1      -3.767  -9.360 -18.474  1.00  0.00    +0.179 C 
ATOM      4  C   UNL     1      -4.596 -10.063 -17.395  1.00  0.00    +0.177 C 
ATOM      5  C   UNL     1      -4.042 -11.459 -17.024  1.00  0.00    +0.180 C 
ATOM      6  O   UNL     1      -3.187 -12.001 -18.049  1.00  0.00    -0.341 OA
ENDROOT
BRANCH   1   7
ATOM      7  O   UNL     1      -0.853 -11.555 -17.865  1.00  0.00    -0.341 OA
BRANCH   7   8
ATOM      8  C   UNL     1      -0.389 -12.837 -18.275  1.00  0.00    +0.184 C 
ATOM      9  C   UNL     1       1.122 -14.627 -18.191  1.00  0.00    +0.195 C 
ATOM     10  C   UNL     1       0.578 -13.503 -17.308  1.00  0.00    +0.179 C 
ATOM     11  O   UNL     1       1.134 -14.098 -19.542  1.00  0.00    -0.370 OA
ATOM     12  O   UNL     1       1.588 -12.570 -16.885  1.00  0.00    -0.342 OA
ATOM     13  C   UNL     1       0.552 -12.771 -19.473  1.00  0.00    +0.184 C 
ATOM     14  C   UNL     1       2.403 -12.015 -17.912  1.00  0.00    +0.279 C 
ATOM     15  C   UNL     1       1.648 -11.724 -19.229  1.00  0.00    +0.202 C 
BRANCH  14  16
ATOM     16  O   UNL     1       3.499 -12.894 -18.152  1.00  0.00    -0.366 OA
ATOM     17  H   UNL     1       3.728 -13.244 -17.273  1.00  0.00    +0.213 HD
ENDBRANCH  14  16
BRANCH  15  18
ATOM     18  O   UNL     1       2.555 -11.685 -20.338  1.00  0.00    -0.385 OA
ATOM     19  H   UNL     1       3.418 -11.458 -19.931  1.00  0.00    +0.211 HD
ENDBRANCH  15  18
ENDBRANCH   7   8
ENDBRANCH   1   7
BRANCH   2  20
ATOM     20  O   UNL     1      -1.510  -8.907 -19.188  1.00  0.00    -0.385 OA
ATOM     21  H   UNL     1      -0.582  -8.993 -18.893  1.00  0.00    +0.211 HD
ENDBRANCH   2  20
BRANCH   3  22
ATOM     22  O   UNL     1      -3.992  -7.943 -18.395  1.00  0.00    -0.387 OA
ATOM     23  H   UNL     1      -3.218  -7.594 -17.904  1.00  0.00    +0.211 HD
ENDBRANCH   3  22
BRANCH   5  24
ATOM     24  C   UNL     1      -3.395 -11.555 -15.629  1.00  0.00    +0.220 C 
BRANCH  24  25
ATOM     25  O   UNL     1      -3.699 -12.834 -15.077  1.00  0.00    -0.245 OA
BRANCH  25  26
ATOM     26  S   UNL     1      -4.706 -12.890 -13.805  1.00  0.00    +0.397 S 
ATOM     27  O   UNL     1      -5.179 -14.242 -13.609  1.00  0.00    -0.169 OA
ATOM     28  O   UNL     1      -5.607 -11.763 -13.890  1.00  0.00    -0.169 OA
BRANCH  26  29
ATOM     29  O   UNL     1      -3.719 -12.535 -12.583  1.00  0.00    -0.264 OA
ATOM     30  H   UNL     1      -3.722 -13.307 -11.981  1.00  0.00    +0.236 HD
ENDBRANCH  26  29
ENDBRANCH  25  26
ENDBRANCH  24  25
ENDBRANCH   5  24
BRANCH   4  31
ATOM     31  O   UNL     1      -4.686  -9.213 -16.246  1.00  0.00    -0.387 OA
ATOM     32  H   UNL     1      -5.224  -8.445 -16.543  1.00  0.00    +0.211 HD
ENDBRANCH   4  31
TORSDOF 11
ENDMDL
