MODEL 1
REMARK VINA RESULT:    -6.549      0.000      0.000
REMARK INTER + INTRA:         -23.604
REMARK INTER:                 -16.503
REMARK INTRA:                  -7.101
REMARK UNBOUND:                -7.101
REMARK SMILES N[C@@H]1[C@@H](O[C@@H]2[C@H](N)[C@H](O[C@@H]3O[C@H](CO)[C@@H](O)[C@H](O[C@@H]4O[C@@H](CO)[C@@H](O)[C@H](O)[C@H]4N)[C@H]3N)O[C@@H](CO[C@H]3O[C@@H](CO)[C@@H](O)[C@H](O)[C@H]3N)[C@H]2O[C@H]2O[C@@H](CO)[C@@H](O)[C@@H](O)[C@H]2N)O[C@H](CO)[C@H](O)[C@H]1O
REMARK SMILES IDX 33 1 47 2 5 3 6 4 8 5 32 6 34 7 35 8 36 9 38 10 41 11 37 12
REMARK SMILES IDX 43 13 45 14 39 15 40 16 42 18 44 20 46 22 48 25 49 26 58 27
REMARK SMILES IDX 50 28 56 29 51 30 54 31 59 32 57 35 52 37 53 38 55 40 4 42
REMARK SMILES IDX 3 43 2 44 60 45 66 46 61 47 64 48 1 49 67 52 62 54 63 55
REMARK SMILES IDX 65 57 9 59 10 60 30 61 11 62 17 63 12 64 15 65 31 66 18 69
REMARK SMILES IDX 19 70 28 71 20 72 26 73 21 74 24 75 29 76 27 79 22 81 23 82
REMARK SMILES IDX 25 84 13 86 14 87 16 89 7 91
REMARK H PARENT 40 17 42 19 44 21 46 23 46 24 59 33 59 34 57 36 53 39 55 41
REMARK H PARENT 1 50 1 51 67 53 63 56 65 58 31 67 31 68 29 77 29 78 27 80
REMARK H PARENT 23 83 25 85 14 88 16 90 7 92 7 93
ROOT
ATOM      1  C   UNL     1     -19.105  14.112  -2.301  1.00  0.00    +0.179 C 
ATOM      2  C   UNL     1     -19.792  14.380  -0.946  1.00  0.00    +0.183 C 
ATOM      3  C   UNL     1     -19.216  15.637  -0.264  1.00  0.00    +0.175 C 
ATOM      4  C   UNL     1     -19.250  16.830  -1.245  1.00  0.00    +0.140 C 
ATOM      5  C   UNL     1     -18.503  16.429  -2.549  1.00  0.00    +0.273 C 
ATOM      6  O   UNL     1     -19.109  15.284  -3.136  1.00  0.00    -0.342 OA
ENDROOT
BRANCH   1   7
ATOM      7  C   UNL     1     -17.686  13.509  -2.152  1.00  0.00    +0.198 C 
BRANCH   7   8
ATOM      8  O   UNL     1     -17.613  12.214  -2.758  1.00  0.00    -0.348 OA
BRANCH   8   9
ATOM      9  C   UNL     1     -16.299  11.906  -3.249  1.00  0.00    +0.270 C 
ATOM     10  C   UNL     1     -15.007  10.197  -4.365  1.00  0.00    +0.178 C 
ATOM     11  C   UNL     1     -13.945  11.309  -4.362  1.00  0.00    +0.176 C 
ATOM     12  O   UNL     1     -16.257  10.584  -3.778  1.00  0.00    -0.342 OA
ATOM     13  C   UNL     1     -14.499  12.642  -4.885  1.00  0.00    +0.167 C 
ATOM     14  C   UNL     1     -15.909  12.955  -4.334  1.00  0.00    +0.139 C 
BRANCH  10  15
ATOM     15  C   UNL     1     -15.296   9.592  -5.749  1.00  0.00    +0.191 C 
BRANCH  15  16
ATOM     16  O   UNL     1     -16.658   9.771  -6.129  1.00  0.00    -0.394 OA
ATOM     17  H   UNL     1     -16.815  10.730  -6.184  1.00  0.00    +0.210 HD
ENDBRANCH  15  16
ENDBRANCH  10  15
BRANCH  11  18
ATOM     18  O   UNL     1     -12.756  10.957  -5.082  1.00  0.00    -0.388 OA
ATOM     19  H   UNL     1     -12.091  11.646  -4.899  1.00  0.00    +0.211 HD
ENDBRANCH  11  18
BRANCH  13  20
ATOM     20  O   UNL     1     -13.580  13.683  -4.494  1.00  0.00    -0.388 OA
ATOM     21  H   UNL     1     -14.068  14.214  -3.835  1.00  0.00    +0.211 HD
ENDBRANCH  13  20
BRANCH  14  22
ATOM     22  N   UNL     1     -16.904  12.974  -5.449  1.00  0.00    -0.321 NA
ATOM     23  H   UNL     1     -16.345  12.957  -6.318  1.00  0.00    +0.119 HD
ATOM     24  H   UNL     1     -17.355  12.041  -5.452  1.00  0.00    +0.119 HD
ENDBRANCH  14  22
ENDBRANCH   8   9
ENDBRANCH   7   8
ENDBRANCH   1   7
BRANCH   2  25
ATOM     25  O   UNL     1     -19.604  13.252  -0.070  1.00  0.00    -0.342 OA
BRANCH  25  26
ATOM     26  C   UNL     1     -20.515  12.183  -0.357  1.00  0.00    +0.270 C 
ATOM     27  C   UNL     1     -21.934  12.798  -0.565  1.00  0.00    +0.139 C 
ATOM     28  O   UNL     1     -20.527  11.239   0.712  1.00  0.00    -0.342 OA
ATOM     29  C   UNL     1     -22.978  11.675  -0.824  1.00  0.00    +0.167 C 
ATOM     30  C   UNL     1     -21.481  10.176   0.576  1.00  0.00    +0.178 C 
ATOM     31  C   UNL     1     -22.362  10.278  -0.686  1.00  0.00    +0.176 C 
BRANCH  27  32
ATOM     32  N   UNL     1     -22.305  13.711   0.548  1.00  0.00    -0.321 NA
ATOM     33  H   UNL     1     -21.462  14.235   0.806  1.00  0.00    +0.119 HD
ATOM     34  H   UNL     1     -22.925  14.421   0.151  1.00  0.00    +0.119 HD
ENDBRANCH  27  32
BRANCH  29  35
ATOM     35  O   UNL     1     -24.122  11.743   0.052  1.00  0.00    -0.388 OA
ATOM     36  H   UNL     1     -23.917  11.114   0.775  1.00  0.00    +0.211 HD
ENDBRANCH  29  35
BRANCH  30  37
ATOM     37  C   UNL     1     -22.252  10.040   1.906  1.00  0.00    +0.191 C 
BRANCH  37  38
ATOM     38  O   UNL     1     -22.493  11.281   2.566  1.00  0.00    -0.394 OA
ATOM     39  H   UNL     1     -21.990  11.972   2.078  1.00  0.00    +0.210 HD
ENDBRANCH  37  38
ENDBRANCH  30  37
BRANCH  31  40
ATOM     40  O   UNL     1     -23.402   9.295  -0.717  1.00  0.00    -0.388 OA
ATOM     41  H   UNL     1     -23.879   9.392  -1.562  1.00  0.00    +0.211 HD
ENDBRANCH  31  40
ENDBRANCH  25  26
ENDBRANCH   2  25
BRANCH   3  42
ATOM     42  O   UNL     1     -19.967  15.869   0.947  1.00  0.00    -0.343 OA
BRANCH  42  43
ATOM     43  C   UNL     1     -19.192  15.789   2.149  1.00  0.00    +0.270 C 
ATOM     44  C   UNL     1     -20.044  15.019   3.192  1.00  0.00    +0.139 C 
ATOM     45  O   UNL     1     -18.886  17.119   2.576  1.00  0.00    -0.342 OA
ATOM     46  C   UNL     1     -19.412  15.105   4.589  1.00  0.00    +0.167 C 
ATOM     47  C   UNL     1     -18.243  17.214   3.851  1.00  0.00    +0.178 C 
ATOM     48  C   UNL     1     -19.104  16.561   4.946  1.00  0.00    +0.176 C 
BRANCH  44  49
ATOM     49  N   UNL     1     -20.231  13.598   2.809  1.00  0.00    -0.321 NA
ATOM     50  H   UNL     1     -20.339  13.554   1.796  1.00  0.00    +0.119 HD
ATOM     51  H   UNL     1     -21.121  13.293   3.215  1.00  0.00    +0.119 HD
ENDBRANCH  44  49
BRANCH  46  52
ATOM     52  O   UNL     1     -20.319  14.562   5.566  1.00  0.00    -0.388 OA
ATOM     53  H   UNL     1     -20.890  13.944   5.066  1.00  0.00    +0.211 HD
ENDBRANCH  46  52
BRANCH  47  54
ATOM     54  C   UNL     1     -16.786  16.719   3.792  1.00  0.00    +0.191 C 
BRANCH  54  55
ATOM     55  O   UNL     1     -15.979  17.420   4.733  1.00  0.00    -0.394 OA
ATOM     56  H   UNL     1     -15.692  18.249   4.301  1.00  0.00    +0.210 HD
ENDBRANCH  54  55
ENDBRANCH  47  54
BRANCH  48  57
ATOM     57  O   UNL     1     -18.526  16.605   6.255  1.00  0.00    -0.388 OA
ATOM     58  H   UNL     1     -18.233  17.529   6.422  1.00  0.00    +0.211 HD
ENDBRANCH  48  57
ENDBRANCH  42  43
ENDBRANCH   3  42
BRANCH   5  59
ATOM     59  O   UNL     1     -18.566  17.540  -3.447  1.00  0.00    -0.320 OA
BRANCH  59  60
ATOM     60  C   UNL     1     -17.450  17.637  -4.333  1.00  0.00    +0.273 C 
ATOM     61  C   UNL     1     -16.122  17.227  -3.631  1.00  0.00    +0.140 C 
ATOM     62  O   UNL     1     -17.748  16.739  -5.412  1.00  0.00    -0.342 OA
ATOM     63  C   UNL     1     -14.995  17.138  -4.681  1.00  0.00    +0.174 C 
ATOM     64  C   UNL     1     -16.732  16.724  -6.429  1.00  0.00    +0.178 C 
ATOM     65  C   UNL     1     -15.403  16.238  -5.852  1.00  0.00    +0.176 C 
BRANCH  61  66
ATOM     66  N   UNL     1     -15.711  18.157  -2.561  1.00  0.00    -0.321 NA
ATOM     67  H   UNL     1     -16.525  18.349  -1.961  1.00  0.00    +0.119 HD
ATOM     68  H   UNL     1     -15.471  19.063  -2.990  1.00  0.00    +0.119 HD
ENDBRANCH  61  66
BRANCH  63  69
ATOM     69  O   UNL     1     -13.810  16.558  -4.097  1.00  0.00    -0.343 OA
BRANCH  69  70
ATOM     70  C   UNL     1     -12.619  17.257  -4.468  1.00  0.00    +0.270 C 
ATOM     71  C   UNL     1     -11.837  17.653  -3.181  1.00  0.00    +0.139 C 
ATOM     72  O   UNL     1     -11.871  16.428  -5.370  1.00  0.00    -0.342 OA
ATOM     73  C   UNL     1     -10.348  17.716  -3.540  1.00  0.00    +0.167 C 
ATOM     74  C   UNL     1     -10.975  15.530  -4.695  1.00  0.00    +0.178 C 
ATOM     75  C   UNL     1      -9.853  16.329  -3.987  1.00  0.00    +0.176 C 
BRANCH  71  76
ATOM     76  N   UNL     1     -12.309  18.922  -2.567  1.00  0.00    -0.321 NA
ATOM     77  H   UNL     1     -12.559  19.535  -3.351  1.00  0.00    +0.119 HD
ATOM     78  H   UNL     1     -13.215  18.736  -2.109  1.00  0.00    +0.119 HD
ENDBRANCH  71  76
BRANCH  73  79
ATOM     79  O   UNL     1      -9.570  18.159  -2.415  1.00  0.00    -0.388 OA
ATOM     80  H   UNL     1      -8.809  17.548  -2.380  1.00  0.00    +0.211 HD
ENDBRANCH  73  79
BRANCH  74  81
ATOM     81  C   UNL     1     -10.468  14.500  -5.714  1.00  0.00    +0.191 C 
BRANCH  81  82
ATOM     82  O   UNL     1     -10.797  13.169  -5.304  1.00  0.00    -0.394 OA
ATOM     83  H   UNL     1     -10.505  13.080  -4.379  1.00  0.00    +0.210 HD
ENDBRANCH  81  82
ENDBRANCH  74  81
BRANCH  75  84
ATOM     84  O   UNL     1      -8.670  16.547  -4.767  1.00  0.00    -0.388 OA
ATOM     85  H   UNL     1      -8.253  17.374  -4.436  1.00  0.00    +0.211 HD
ENDBRANCH  75  84
ENDBRANCH  69  70
ENDBRANCH  63  69
BRANCH  64  86
ATOM     86  C   UNL     1     -17.227  15.807  -7.550  1.00  0.00    +0.191 C 
BRANCH  86  87
ATOM     87  O   UNL     1     -16.291  14.739  -7.737  1.00  0.00    -0.394 OA
ATOM     88  H   UNL     1     -15.422  15.182  -7.803  1.00  0.00    +0.210 HD
ENDBRANCH  86  87
ENDBRANCH  64  86
BRANCH  65  89
ATOM     89  O   UNL     1     -14.378  16.266  -6.853  1.00  0.00    -0.388 OA
ATOM     90  H   UNL     1     -13.642  15.731  -6.492  1.00  0.00    +0.211 HD
ENDBRANCH  65  89
ENDBRANCH  59  60
ENDBRANCH   5  59
BRANCH   4  91
ATOM     91  N   UNL     1     -20.645  17.271  -1.497  1.00  0.00    -0.321 NA
ATOM     92  H   UNL     1     -21.249  16.787  -0.828  1.00  0.00    +0.119 HD
ATOM     93  H   UNL     1     -20.907  16.954  -2.433  1.00  0.00    +0.119 HD
ENDBRANCH   4  91
TORSDOF 36
ENDMDL
MODEL 2
REMARK VINA RESULT:    -6.140     31.669     37.224
REMARK INTER + INTRA:         -22.573
REMARK INTER:                 -16.815
REMARK INTRA:                  -5.757
REMARK UNBOUND:                -7.101
REMARK SMILES N[C@@H]1[C@@H](O[C@@H]2[C@H](N)[C@H](O[C@@H]3O[C@H](CO)[C@@H](O)[C@H](O[C@@H]4O[C@@H](CO)[C@@H](O)[C@H](O)[C@H]4N)[C@H]3N)O[C@@H](CO[C@H]3O[C@@H](CO)[C@@H](O)[C@H](O)[C@H]3N)[C@H]2O[C@H]2O[C@@H](CO)[C@@H](O)[C@@H](O)[C@H]2N)O[C@H](CO)[C@H](O)[C@H]1O
REMARK SMILES IDX 33 1 47 2 5 3 6 4 8 5 32 6 34 7 35 8 36 9 38 10 41 11 37 12
REMARK SMILES IDX 43 13 45 14 39 15 40 16 42 18 44 20 46 22 48 25 49 26 58 27
REMARK SMILES IDX 50 28 56 29 51 30 54 31 59 32 57 35 52 37 53 38 55 40 4 42
REMARK SMILES IDX 3 43 2 44 60 45 66 46 61 47 64 48 1 49 67 52 62 54 63 55
REMARK SMILES IDX 65 57 9 59 10 60 30 61 11 62 17 63 12 64 15 65 31 66 18 69
REMARK SMILES IDX 19 70 28 71 20 72 26 73 21 74 24 75 29 76 27 79 22 81 23 82
REMARK SMILES IDX 25 84 13 86 14 87 16 89 7 91
REMARK H PARENT 40 17 42 19 44 21 46 23 46 24 59 33 59 34 57 36 53 39 55 41
REMARK H PARENT 1 50 1 51 67 53 63 56 65 58 31 67 31 68 29 77 29 78 27 80
REMARK H PARENT 23 83 25 85 14 88 16 90 7 92 7 93
ROOT
ATOM      1  C   UNL     1       2.779 -11.403 -18.991  1.00  0.00    +0.179 C 
ATOM      2  C   UNL     1       3.264 -12.728 -19.616  1.00  0.00    +0.183 C 
ATOM      3  C   UNL     1       3.929 -12.491 -20.987  1.00  0.00    +0.175 C 
ATOM      4  C   UNL     1       5.021 -11.406 -20.861  1.00  0.00    +0.140 C 
ATOM      5  C   UNL     1       4.390 -10.126 -20.244  1.00  0.00    +0.273 C 
ATOM      6  O   UNL     1       3.826 -10.415 -18.971  1.00  0.00    -0.342 OA
ENDROOT
BRANCH   1   7
ATOM      7  C   UNL     1       1.483 -10.864 -19.643  1.00  0.00    +0.198 C 
BRANCH   7   8
ATOM      8  O   UNL     1       0.406 -10.838 -18.701  1.00  0.00    -0.348 OA
BRANCH   8   9
ATOM      9  C   UNL     1      -0.877 -10.705 -19.331  1.00  0.00    +0.270 C 
ATOM     10  C   UNL     1      -3.157 -11.503 -19.256  1.00  0.00    +0.178 C 
ATOM     11  C   UNL     1      -3.346 -10.396 -20.307  1.00  0.00    +0.176 C 
ATOM     12  O   UNL     1      -1.819 -11.604 -18.751  1.00  0.00    -0.342 OA
ATOM     13  C   UNL     1      -2.741  -9.059 -19.855  1.00  0.00    +0.167 C 
ATOM     14  C   UNL     1      -1.356  -9.228 -19.190  1.00  0.00    +0.139 C 
BRANCH  10  15
ATOM     15  C   UNL     1      -4.115 -11.416 -18.056  1.00  0.00    +0.191 C 
BRANCH  15  16
ATOM     16  O   UNL     1      -3.454 -10.942 -16.886  1.00  0.00    -0.394 OA
ATOM     17  H   UNL     1      -3.386  -9.974 -16.970  1.00  0.00    +0.210 HD
ENDBRANCH  15  16
ENDBRANCH  10  15
BRANCH  11  18
ATOM     18  O   UNL     1      -4.714 -10.210 -20.691  1.00  0.00    -0.388 OA
ATOM     19  H   UNL     1      -5.060  -9.458 -20.176  1.00  0.00    +0.211 HD
ENDBRANCH  11  18
BRANCH  13  20
ATOM     20  O   UNL     1      -2.624  -8.215 -21.019  1.00  0.00    -0.388 OA
ATOM     21  H   UNL     1      -2.465  -7.319 -20.665  1.00  0.00    +0.211 HD
ENDBRANCH  13  20
BRANCH  14  22
ATOM     22  N   UNL     1      -1.421  -8.816 -17.755  1.00  0.00    -0.321 NA
ATOM     23  H   UNL     1      -0.777  -8.013 -17.669  1.00  0.00    +0.119 HD
ATOM     24  H   UNL     1      -2.349  -8.377 -17.621  1.00  0.00    +0.119 HD
ENDBRANCH  14  22
ENDBRANCH   8   9
ENDBRANCH   7   8
ENDBRANCH   1   7
BRANCH   2  25
ATOM     25  O   UNL     1       2.150 -13.623 -19.791  1.00  0.00    -0.342 OA
BRANCH  25  26
ATOM     26  C   UNL     1       2.218 -14.756 -18.916  1.00  0.00    +0.270 C 
ATOM     27  C   UNL     1       0.833 -14.909 -18.213  1.00  0.00    +0.139 C 
ATOM     28  O   UNL     1       3.255 -14.580 -17.953  1.00  0.00    -0.342 OA
ATOM     29  C   UNL     1       0.866 -16.094 -17.206  1.00  0.00    +0.167 C 
ATOM     30  C   UNL     1       3.348 -15.612 -16.961  1.00  0.00    +0.178 C 
ATOM     31  C   UNL     1       2.267 -16.706 -17.087  1.00  0.00    +0.176 C 
BRANCH  27  32
ATOM     32  N   UNL     1       0.378 -13.628 -17.612  1.00  0.00    -0.321 NA
ATOM     33  H   UNL     1       0.798 -13.564 -16.678  1.00  0.00    +0.119 HD
ATOM     34  H   UNL     1       0.833 -12.879 -18.138  1.00  0.00    +0.119 HD
ENDBRANCH  27  32
BRANCH  29  35
ATOM     35  O   UNL     1       0.428 -15.731 -15.881  1.00  0.00    -0.388 OA
ATOM     36  H   UNL     1       0.616 -16.522 -15.333  1.00  0.00    +0.211 HD
ENDBRANCH  29  35
BRANCH  30  37
ATOM     37  C   UNL     1       3.449 -14.946 -15.573  1.00  0.00    +0.191 C 
BRANCH  37  38
ATOM     38  O   UNL     1       2.752 -13.706 -15.472  1.00  0.00    -0.394 OA
ATOM     39  H   UNL     1       1.986 -13.851 -14.871  1.00  0.00    +0.210 HD
ENDBRANCH  37  38
ENDBRANCH  30  37
BRANCH  31  40
ATOM     40  O   UNL     1       2.289 -17.635 -15.998  1.00  0.00    -0.388 OA
ATOM     41  H   UNL     1       3.032 -17.392 -15.414  1.00  0.00    +0.211 HD
ENDBRANCH  31  40
ENDBRANCH  25  26
ENDBRANCH   2  25
BRANCH   3  42
ATOM     42  O   UNL     1       4.431 -13.759 -21.462  1.00  0.00    -0.343 OA
BRANCH  42  43
ATOM     43  C   UNL     1       3.843 -14.206 -22.689  1.00  0.00    +0.270 C 
ATOM     44  C   UNL     1       5.006 -14.617 -23.631  1.00  0.00    +0.139 C 
ATOM     45  O   UNL     1       3.062 -13.136 -23.229  1.00  0.00    -0.342 OA
ATOM     46  C   UNL     1       4.496 -14.864 -25.058  1.00  0.00    +0.167 C 
ATOM     47  C   UNL     1       2.529 -13.374 -24.536  1.00  0.00    +0.178 C 
ATOM     48  C   UNL     1       3.658 -13.677 -25.537  1.00  0.00    +0.176 C 
BRANCH  44  49
ATOM     49  N   UNL     1       5.717 -15.820 -23.133  1.00  0.00    -0.321 NA
ATOM     50  H   UNL     1       5.023 -16.468 -22.761  1.00  0.00    +0.119 HD
ATOM     51  H   UNL     1       6.296 -15.520 -22.342  1.00  0.00    +0.119 HD
ENDBRANCH  44  49
BRANCH  46  52
ATOM     52  O   UNL     1       5.613 -15.042 -25.948  1.00  0.00    -0.388 OA
ATOM     53  H   UNL     1       5.619 -14.241 -26.511  1.00  0.00    +0.211 HD
ENDBRANCH  46  52
BRANCH  47  54
ATOM     54  C   UNL     1       1.392 -14.413 -24.507  1.00  0.00    +0.191 C 
BRANCH  54  55
ATOM     55  O   UNL     1       0.615 -14.339 -25.698  1.00  0.00    -0.394 OA
ATOM     56  H   UNL     1      -0.314 -14.506 -25.444  1.00  0.00    +0.210 HD
ENDBRANCH  54  55
ENDBRANCH  47  54
BRANCH  48  57
ATOM     57  O   UNL     1       3.207 -13.937 -26.872  1.00  0.00    -0.388 OA
ATOM     58  H   UNL     1       3.780 -13.424 -27.485  1.00  0.00    +0.211 HD
ENDBRANCH  48  57
ENDBRANCH  42  43
ENDBRANCH   3  42
BRANCH   5  59
ATOM     59  O   UNL     1       5.423  -9.146 -20.120  1.00  0.00    -0.320 OA
BRANCH  59  60
ATOM     60  C   UNL     1       4.984  -7.805 -20.339  1.00  0.00    +0.273 C 
ATOM     61  C   UNL     1       5.683  -6.806 -19.371  1.00  0.00    +0.140 C 
ATOM     62  O   UNL     1       5.331  -7.513 -21.701  1.00  0.00    -0.342 OA
ATOM     63  C   UNL     1       5.344  -5.361 -19.793  1.00  0.00    +0.174 C 
ATOM     64  C   UNL     1       4.936  -6.195 -22.114  1.00  0.00    +0.178 C 
ATOM     65  C   UNL     1       5.652  -5.134 -21.277  1.00  0.00    +0.176 C 
BRANCH  61  66
ATOM     66  N   UNL     1       5.306  -6.995 -17.956  1.00  0.00    -0.321 NA
ATOM     67  H   UNL     1       5.429  -7.987 -17.713  1.00  0.00    +0.119 HD
ATOM     68  H   UNL     1       4.295  -6.817 -17.862  1.00  0.00    +0.119 HD
ENDBRANCH  61  66
BRANCH  63  69
ATOM     69  O   UNL     1       6.144  -4.419 -19.049  1.00  0.00    -0.343 OA
BRANCH  69  70
ATOM     70  C   UNL     1       5.349  -3.447 -18.365  1.00  0.00    +0.270 C 
ATOM     71  C   UNL     1       5.857  -3.310 -16.899  1.00  0.00    +0.139 C 
ATOM     72  O   UNL     1       5.395  -2.221 -19.111  1.00  0.00    -0.342 OA
ATOM     73  C   UNL     1       5.553  -1.883 -16.431  1.00  0.00    +0.167 C 
ATOM     74  C   UNL     1       6.501  -1.381 -18.744  1.00  0.00    +0.178 C 
ATOM     75  C   UNL     1       6.322  -0.868 -17.293  1.00  0.00    +0.176 C 
BRANCH  71  76
ATOM     76  N   UNL     1       5.284  -4.326 -15.977  1.00  0.00    -0.321 NA
ATOM     77  H   UNL     1       4.307  -4.447 -16.267  1.00  0.00    +0.119 HD
ATOM     78  H   UNL     1       5.715  -5.237 -16.200  1.00  0.00    +0.119 HD
ENDBRANCH  71  76
BRANCH  73  79
ATOM     79  O   UNL     1       5.920  -1.710 -15.051  1.00  0.00    -0.388 OA
ATOM     80  H   UNL     1       5.553  -0.840 -14.802  1.00  0.00    +0.211 HD
ENDBRANCH  73  79
BRANCH  74  81
ATOM     81  C   UNL     1       6.630  -0.269 -19.794  1.00  0.00    +0.191 C 
BRANCH  81  82
ATOM     82  O   UNL     1       7.722   0.603 -19.486  1.00  0.00    -0.394 OA
ATOM     83  H   UNL     1       7.340   1.387 -19.051  1.00  0.00    +0.210 HD
ENDBRANCH  81  82
ENDBRANCH  74  81
BRANCH  75  84
ATOM     84  O   UNL     1       5.635   0.384 -17.167  1.00  0.00    -0.388 OA
ATOM     85  H   UNL     1       5.412   0.497 -16.216  1.00  0.00    +0.211 HD
ENDBRANCH  75  84
ENDBRANCH  69  70
ENDBRANCH  63  69
BRANCH  64  86
ATOM     86  C   UNL     1       5.279  -6.064 -23.600  1.00  0.00    +0.191 C 
BRANCH  86  87
ATOM     87  O   UNL     1       4.216  -5.379 -24.273  1.00  0.00    -0.394 OA
ATOM     88  H   UNL     1       3.434  -5.952 -24.147  1.00  0.00    +0.210 HD
ENDBRANCH  86  87
ENDBRANCH  64  86
BRANCH  65  89
ATOM     89  O   UNL     1       5.224  -3.820 -21.656  1.00  0.00    -0.388 OA
ATOM     90  H   UNL     1       5.958  -3.445 -22.184  1.00  0.00    +0.211 HD
ENDBRANCH  65  89
ENDBRANCH  59  60
ENDBRANCH   5  59
BRANCH   4  91
ATOM     91  N   UNL     1       6.179 -11.907 -20.080  1.00  0.00    -0.321 NA
ATOM     92  H   UNL     1       6.374 -11.226 -19.342  1.00  0.00    +0.119 HD
ATOM     93  H   UNL     1       6.991 -11.924 -20.703  1.00  0.00    +0.119 HD
ENDBRANCH   4  91
TORSDOF 36
ENDMDL
MODEL 3
REMARK VINA RESULT:    -6.087     24.618     28.019
REMARK INTER + INTRA:         -22.439
REMARK INTER:                 -15.408
REMARK INTRA:                  -7.031
REMARK UNBOUND:                -7.101
REMARK SMILES N[C@@H]1[C@@H](O[C@@H]2[C@H](N)[C@H](O[C@@H]3O[C@H](CO)[C@@H](O)[C@H](O[C@@H]4O[C@@H](CO)[C@@H](O)[C@H](O)[C@H]4N)[C@H]3N)O[C@@H](CO[C@H]3O[C@@H](CO)[C@@H](O)[C@H](O)[C@H]3N)[C@H]2O[C@H]2O[C@@H](CO)[C@@H](O)[C@@H](O)[C@H]2N)O[C@H](CO)[C@H](O)[C@H]1O
REMARK SMILES IDX 33 1 47 2 5 3 6 4 8 5 32 6 34 7 35 8 36 9 38 10 41 11 37 12
REMARK SMILES IDX 43 13 45 14 39 15 40 16 42 18 44 20 46 22 48 25 49 26 58 27
REMARK SMILES IDX 50 28 56 29 51 30 54 31 59 32 57 35 52 37 53 38 55 40 4 42
REMARK SMILES IDX 3 43 2 44 60 45 66 46 61 47 64 48 1 49 67 52 62 54 63 55
REMARK SMILES IDX 65 57 9 59 10 60 30 61 11 62 17 63 12 64 15 65 31 66 18 69
REMARK SMILES IDX 19 70 28 71 20 72 26 73 21 74 24 75 29 76 27 79 22 81 23 82
REMARK SMILES IDX 25 84 13 86 14 87 16 89 7 91
REMARK H PARENT 40 17 42 19 44 21 46 23 46 24 59 33 59 34 57 36 53 39 55 41
REMARK H PARENT 1 50 1 51 67 53 63 56 65 58 31 67 31 68 29 77 29 78 27 80
REMARK H PARENT 23 83 25 85 14 88 16 90 7 92 7 93
ROOT
ATOM      1  C   UNL     1      -7.316  -8.961   8.221  1.00  0.00    +0.179 C 
ATOM      2  C   UNL     1      -8.322  -9.709   9.120  1.00  0.00    +0.183 C 
ATOM      3  C   UNL     1      -9.148  -8.726   9.974  1.00  0.00    +0.175 C 
ATOM      4  C   UNL     1      -9.779  -7.644   9.071  1.00  0.00    +0.140 C 
ATOM      5  C   UNL     1      -8.653  -6.959   8.246  1.00  0.00    +0.273 C 
ATOM      6  O   UNL     1      -7.958  -7.920   7.461  1.00  0.00    -0.342 OA
ENDROOT
BRANCH   1   7
ATOM      7  C   UNL     1      -6.083  -8.437   8.997  1.00  0.00    +0.198 C 
BRANCH   7   8
ATOM      8  O   UNL     1      -4.890  -8.571   8.217  1.00  0.00    -0.348 OA
BRANCH   8   9
ATOM      9  C   UNL     1      -3.718  -8.124   8.916  1.00  0.00    +0.270 C 
ATOM     10  C   UNL     1      -2.595  -8.208  11.054  1.00  0.00    +0.178 C 
ATOM     11  C   UNL     1      -1.489  -7.503  10.251  1.00  0.00    +0.176 C 
ATOM     12  O   UNL     1      -3.755  -8.539  10.279  1.00  0.00    -0.342 OA
ATOM     13  C   UNL     1      -1.179  -8.225   8.932  1.00  0.00    +0.167 C 
ATOM     14  C   UNL     1      -2.456  -8.687   8.194  1.00  0.00    +0.139 C 
BRANCH  10  15
ATOM     15  C   UNL     1      -2.138  -9.476  11.795  1.00  0.00    +0.191 C 
BRANCH  15  16
ATOM     16  O   UNL     1      -1.431  -9.162  12.993  1.00  0.00    -0.394 OA
ATOM     17  H   UNL     1      -1.620  -8.229  13.199  1.00  0.00    +0.210 HD
ENDBRANCH  15  16
ENDBRANCH  10  15
BRANCH  11  18
ATOM     18  O   UNL     1      -0.281  -7.313  11.000  1.00  0.00    -0.388 OA
ATOM     19  H   UNL     1      -0.462  -6.633  11.675  1.00  0.00    +0.211 HD
ENDBRANCH  11  18
BRANCH  13  20
ATOM     20  O   UNL     1      -0.436  -7.314   8.097  1.00  0.00    -0.388 OA
ATOM     21  H   UNL     1      -0.671  -7.563   7.182  1.00  0.00    +0.211 HD
ENDBRANCH  13  20
BRANCH  14  22
ATOM     22  N   UNL     1      -2.497 -10.180   8.123  1.00  0.00    -0.321 NA
ATOM     23  H   UNL     1      -3.418 -10.449   8.504  1.00  0.00    +0.119 HD
ATOM     24  H   UNL     1      -2.588 -10.420   7.120  1.00  0.00    +0.119 HD
ENDBRANCH  14  22
ENDBRANCH   8   9
ENDBRANCH   7   8
ENDBRANCH   1   7
BRANCH   2  25
ATOM     25  O   UNL     1      -7.620 -10.608   9.997  1.00  0.00    -0.342 OA
BRANCH  25  26
ATOM     26  C   UNL     1      -7.731 -11.975   9.579  1.00  0.00    +0.270 C 
ATOM     27  C   UNL     1      -6.304 -12.606   9.603  1.00  0.00    +0.139 C 
ATOM     28  O   UNL     1      -8.294 -12.052   8.272  1.00  0.00    -0.342 OA
ATOM     29  C   UNL     1      -6.355 -14.077   9.103  1.00  0.00    +0.167 C 
ATOM     30  C   UNL     1      -8.359 -13.371   7.712  1.00  0.00    +0.178 C 
ATOM     31  C   UNL     1      -7.755 -14.468   8.613  1.00  0.00    +0.176 C 
BRANCH  27  32
ATOM     32  N   UNL     1      -5.319 -11.763   8.874  1.00  0.00    -0.321 NA
ATOM     33  H   UNL     1      -4.389 -12.157   9.055  1.00  0.00    +0.119 HD
ATOM     34  H   UNL     1      -5.469 -11.932   7.877  1.00  0.00    +0.119 HD
ENDBRANCH  27  32
BRANCH  29  35
ATOM     35  O   UNL     1      -5.421 -14.354   8.040  1.00  0.00    -0.388 OA
ATOM     36  H   UNL     1      -5.410 -15.332   7.969  1.00  0.00    +0.211 HD
ENDBRANCH  29  35
BRANCH  30  37
ATOM     37  C   UNL     1      -7.799 -13.320   6.276  1.00  0.00    +0.191 C 
BRANCH  37  38
ATOM     38  O   UNL     1      -6.729 -12.393   6.104  1.00  0.00    -0.394 OA
ATOM     39  H   UNL     1      -6.192 -12.412   6.929  1.00  0.00    +0.210 HD
ENDBRANCH  37  38
ENDBRANCH  30  37
BRANCH  31  40
ATOM     40  O   UNL     1      -7.694 -15.744   7.968  1.00  0.00    -0.388 OA
ATOM     41  H   UNL     1      -8.351 -16.326   8.395  1.00  0.00    +0.211 HD
ENDBRANCH  31  40
ENDBRANCH  25  26
ENDBRANCH   2  25
BRANCH   3  42
ATOM     42  O   UNL     1     -10.121  -9.493  10.717  1.00  0.00    -0.343 OA
BRANCH  42  43
ATOM     43  C   UNL     1     -10.031  -9.345  12.139  1.00  0.00    +0.270 C 
ATOM     44  C   UNL     1     -10.424  -7.881  12.471  1.00  0.00    +0.139 C 
ATOM     45  O   UNL     1      -8.692  -9.650  12.539  1.00  0.00    -0.342 OA
ATOM     46  C   UNL     1     -10.111  -7.547  13.937  1.00  0.00    +0.167 C 
ATOM     47  C   UNL     1      -8.399  -9.400  13.917  1.00  0.00    +0.178 C 
ATOM     48  C   UNL     1      -8.667  -7.927  14.273  1.00  0.00    +0.176 C 
BRANCH  44  49
ATOM     49  N   UNL     1     -11.857  -7.618  12.189  1.00  0.00    -0.321 NA
ATOM     50  H   UNL     1     -12.347  -8.513  12.174  1.00  0.00    +0.119 HD
ATOM     51  H   UNL     1     -11.910  -7.237  11.239  1.00  0.00    +0.119 HD
ENDBRANCH  44  49
BRANCH  46  52
ATOM     52  O   UNL     1     -10.292  -6.137  14.163  1.00  0.00    -0.388 OA
ATOM     53  H   UNL     1      -9.837  -5.957  15.011  1.00  0.00    +0.211 HD
ENDBRANCH  46  52
BRANCH  47  54
ATOM     54  C   UNL     1      -9.087 -10.424  14.840  1.00  0.00    +0.191 C 
BRANCH  54  55
ATOM     55  O   UNL     1      -8.641 -10.268  16.183  1.00  0.00    -0.394 OA
ATOM     56  H   UNL     1      -7.961  -9.565  16.178  1.00  0.00    +0.210 HD
ENDBRANCH  54  55
ENDBRANCH  47  54
BRANCH  48  57
ATOM     57  O   UNL     1      -8.407  -7.594  15.641  1.00  0.00    -0.388 OA
ATOM     58  H   UNL     1      -8.835  -6.728  15.825  1.00  0.00    +0.211 HD
ENDBRANCH  48  57
ENDBRANCH  42  43
ENDBRANCH   3  42
BRANCH   5  59
ATOM     59  O   UNL     1      -9.264  -5.978   7.404  1.00  0.00    -0.320 OA
BRANCH  59  60
ATOM     60  C   UNL     1      -9.365  -4.683   7.998  1.00  0.00    +0.273 C 
ATOM     61  C   UNL     1     -10.725  -4.491   8.730  1.00  0.00    +0.140 C 
ATOM     62  O   UNL     1      -8.276  -4.611   8.930  1.00  0.00    -0.342 OA
ATOM     63  C   UNL     1     -10.693  -3.173   9.532  1.00  0.00    +0.174 C 
ATOM     64  C   UNL     1      -8.202  -3.349   9.613  1.00  0.00    +0.178 C 
ATOM     65  C   UNL     1      -9.463  -3.113  10.444  1.00  0.00    +0.176 C 
BRANCH  61  66
ATOM     66  N   UNL     1     -11.887  -4.472   7.819  1.00  0.00    -0.321 NA
ATOM     67  H   UNL     1     -12.746  -4.549   8.380  1.00  0.00    +0.119 HD
ATOM     68  H   UNL     1     -11.863  -5.326   7.242  1.00  0.00    +0.119 HD
ENDBRANCH  61  66
BRANCH  63  69
ATOM     69  O   UNL     1     -11.853  -3.076  10.384  1.00  0.00    -0.343 OA
BRANCH  69  70
ATOM     70  C   UNL     1     -11.897  -4.112  11.369  1.00  0.00    +0.270 C 
ATOM     71  C   UNL     1     -12.330  -3.501  12.735  1.00  0.00    +0.139 C 
ATOM     72  O   UNL     1     -12.771  -5.148  10.895  1.00  0.00    -0.342 OA
ATOM     73  C   UNL     1     -13.048  -4.597  13.530  1.00  0.00    +0.167 C 
ATOM     74  C   UNL     1     -14.145  -4.932  11.252  1.00  0.00    +0.178 C 
ATOM     75  C   UNL     1     -14.320  -5.041  12.787  1.00  0.00    +0.176 C 
BRANCH  71  76
ATOM     76  N   UNL     1     -11.202  -2.913  13.504  1.00  0.00    -0.321 NA
ATOM     77  H   UNL     1     -11.342  -3.210  14.477  1.00  0.00    +0.119 HD
ATOM     78  H   UNL     1     -10.337  -3.403  13.226  1.00  0.00    +0.119 HD
ENDBRANCH  71  76
BRANCH  73  79
ATOM     79  O   UNL     1     -13.403  -4.127  14.842  1.00  0.00    -0.388 OA
ATOM     80  H   UNL     1     -13.998  -3.368  14.684  1.00  0.00    +0.211 HD
ENDBRANCH  73  79
BRANCH  74  81
ATOM     81  C   UNL     1     -15.011  -5.910  10.447  1.00  0.00    +0.191 C 
BRANCH  81  82
ATOM     82  O   UNL     1     -14.450  -7.226  10.465  1.00  0.00    -0.394 OA
ATOM     83  H   UNL     1     -14.126  -7.405   9.564  1.00  0.00    +0.210 HD
ENDBRANCH  81  82
ENDBRANCH  74  81
BRANCH  75  84
ATOM     84  O   UNL     1     -14.645  -6.350  13.274  1.00  0.00    -0.388 OA
ATOM     85  H   UNL     1     -15.491  -6.615  12.847  1.00  0.00    +0.211 HD
ENDBRANCH  75  84
ENDBRANCH  69  70
ENDBRANCH  63  69
BRANCH  64  86
ATOM     86  C   UNL     1      -6.948  -3.382  10.491  1.00  0.00    +0.191 C 
BRANCH  86  87
ATOM     87  O   UNL     1      -5.791  -3.176   9.674  1.00  0.00    -0.394 OA
ATOM     88  H   UNL     1      -5.461  -2.292   9.931  1.00  0.00    +0.210 HD
ENDBRANCH  86  87
ENDBRANCH  64  86
BRANCH  65  89
ATOM     89  O   UNL     1      -9.411  -1.835  11.088  1.00  0.00    -0.388 OA
ATOM     90  H   UNL     1      -8.976  -1.234  10.449  1.00  0.00    +0.211 HD
ENDBRANCH  65  89
ENDBRANCH  59  60
ENDBRANCH   5  59
BRANCH   4  91
ATOM     91  N   UNL     1     -10.845  -8.223   8.215  1.00  0.00    -0.321 NA
ATOM     92  H   UNL     1     -10.455  -9.043   7.744  1.00  0.00    +0.119 HD
ATOM     93  H   UNL     1     -11.072  -7.534   7.493  1.00  0.00    +0.119 HD
ENDBRANCH   4  91
TORSDOF 36
ENDMDL
MODEL 4
REMARK VINA RESULT:    -6.019     24.138     28.217
REMARK INTER + INTRA:         -22.269
REMARK INTER:                 -14.715
REMARK INTRA:                  -7.554
REMARK UNBOUND:                -7.101
REMARK SMILES N[C@@H]1[C@@H](O[C@@H]2[C@H](N)[C@H](O[C@@H]3O[C@H](CO)[C@@H](O)[C@H](O[C@@H]4O[C@@H](CO)[C@@H](O)[C@H](O)[C@H]4N)[C@H]3N)O[C@@H](CO[C@H]3O[C@@H](CO)[C@@H](O)[C@H](O)[C@H]3N)[C@H]2O[C@H]2O[C@@H](CO)[C@@H](O)[C@@H](O)[C@H]2N)O[C@H](CO)[C@H](O)[C@H]1O
REMARK SMILES IDX 33 1 47 2 5 3 6 4 8 5 32 6 34 7 35 8 36 9 38 10 41 11 37 12
REMARK SMILES IDX 43 13 45 14 39 15 40 16 42 18 44 20 46 22 48 25 49 26 58 27
REMARK SMILES IDX 50 28 56 29 51 30 54 31 59 32 57 35 52 37 53 38 55 40 4 42
REMARK SMILES IDX 3 43 2 44 60 45 66 46 61 47 64 48 1 49 67 52 62 54 63 55
REMARK SMILES IDX 65 57 9 59 10 60 30 61 11 62 17 63 12 64 15 65 31 66 18 69
REMARK SMILES IDX 19 70 28 71 20 72 26 73 21 74 24 75 29 76 27 79 22 81 23 82
REMARK SMILES IDX 25 84 13 86 14 87 16 89 7 91
REMARK H PARENT 40 17 42 19 44 21 46 23 46 24 59 33 59 34 57 36 53 39 55 41
REMARK H PARENT 1 50 1 51 67 53 63 56 65 58 31 67 31 68 29 77 29 78 27 80
REMARK H PARENT 23 83 25 85 14 88 16 90 7 92 7 93
ROOT
ATOM      1  C   UNL     1      -7.324  -4.995   8.893  1.00  0.00    +0.179 C 
ATOM      2  C   UNL     1      -6.913  -6.481   8.838  1.00  0.00    +0.183 C 
ATOM      3  C   UNL     1      -8.079  -7.401   9.256  1.00  0.00    +0.175 C 
ATOM      4  C   UNL     1      -9.341  -7.055   8.436  1.00  0.00    +0.140 C 
ATOM      5  C   UNL     1      -9.650  -5.541   8.603  1.00  0.00    +0.273 C 
ATOM      6  O   UNL     1      -8.545  -4.758   8.170  1.00  0.00    -0.342 OA
ENDROOT
BRANCH   1   7
ATOM      7  C   UNL     1      -7.385  -4.436  10.336  1.00  0.00    +0.198 C 
BRANCH   7   8
ATOM      8  O   UNL     1      -8.334  -5.158  11.127  1.00  0.00    -0.348 OA
BRANCH   8   9
ATOM      9  C   UNL     1      -8.204  -4.888  12.531  1.00  0.00    +0.270 C 
ATOM     10  C   UNL     1      -9.014  -5.553  14.709  1.00  0.00    +0.178 C 
ATOM     11  C   UNL     1      -7.904  -4.594  15.170  1.00  0.00    +0.176 C 
ATOM     12  O   UNL     1      -9.111  -5.689  13.284  1.00  0.00    -0.342 OA
ATOM     13  C   UNL     1      -6.565  -4.878  14.473  1.00  0.00    +0.167 C 
ATOM     14  C   UNL     1      -6.730  -5.156  12.961  1.00  0.00    +0.139 C 
BRANCH  10  15
ATOM     15  C   UNL     1      -8.937  -6.962  15.319  1.00  0.00    +0.191 C 
BRANCH  15  16
ATOM     16  O   UNL     1      -9.378  -6.975  16.675  1.00  0.00    -0.394 OA
ATOM     17  H   UNL     1      -9.330  -7.898  16.981  1.00  0.00    +0.210 HD
ENDBRANCH  15  16
ENDBRANCH  10  15
BRANCH  11  18
ATOM     18  O   UNL     1      -7.723  -4.581  16.591  1.00  0.00    -0.388 OA
ATOM     19  H   UNL     1      -7.488  -3.670  16.846  1.00  0.00    +0.211 HD
ENDBRANCH  11  18
BRANCH  13  20
ATOM     20  O   UNL     1      -5.717  -3.728  14.668  1.00  0.00    -0.388 OA
ATOM     21  H   UNL     1      -5.981  -3.365  15.535  1.00  0.00    +0.211 HD
ENDBRANCH  13  20
BRANCH  14  22
ATOM     22  N   UNL     1      -6.324  -6.560  12.650  1.00  0.00    -0.321 NA
ATOM     23  H   UNL     1      -7.204  -7.065  12.453  1.00  0.00    +0.119 HD
ATOM     24  H   UNL     1      -5.867  -6.532  11.722  1.00  0.00    +0.119 HD
ENDBRANCH  14  22
ENDBRANCH   8   9
ENDBRANCH   7   8
ENDBRANCH   1   7
BRANCH   2  25
ATOM     25  O   UNL     1      -5.800  -6.715   9.721  1.00  0.00    -0.342 OA
BRANCH  25  26
ATOM     26  C   UNL     1      -4.925  -7.740   9.235  1.00  0.00    +0.270 C 
ATOM     27  C   UNL     1      -4.257  -8.430  10.466  1.00  0.00    +0.139 C 
ATOM     28  O   UNL     1      -3.936  -7.183   8.373  1.00  0.00    -0.342 OA
ATOM     29  C   UNL     1      -3.250  -9.518   9.995  1.00  0.00    +0.167 C 
ATOM     30  C   UNL     1      -2.942  -8.107   7.906  1.00  0.00    +0.178 C 
ATOM     31  C   UNL     1      -3.096  -9.535   8.470  1.00  0.00    +0.176 C 
BRANCH  27  32
ATOM     32  N   UNL     1      -3.667  -7.435  11.399  1.00  0.00    -0.321 NA
ATOM     33  H   UNL     1      -3.316  -6.656  10.832  1.00  0.00    +0.119 HD
ATOM     34  H   UNL     1      -4.445  -7.027  11.924  1.00  0.00    +0.119 HD
ENDBRANCH  27  32
BRANCH  29  35
ATOM     35  O   UNL     1      -1.936  -9.369  10.571  1.00  0.00    -0.388 OA
ATOM     36  H   UNL     1      -1.894 -10.057  11.269  1.00  0.00    +0.211 HD
ENDBRANCH  29  35
BRANCH  30  37
ATOM     37  C   UNL     1      -1.551  -7.469   8.106  1.00  0.00    +0.191 C 
BRANCH  37  38
ATOM     38  O   UNL     1      -0.537  -8.016   7.266  1.00  0.00    -0.394 OA
ATOM     39  H   UNL     1       0.256  -8.168   7.828  1.00  0.00    +0.210 HD
ENDBRANCH  37  38
ENDBRANCH  30  37
BRANCH  31  40
ATOM     40  O   UNL     1      -2.008 -10.393   8.112  1.00  0.00    -0.388 OA
ATOM     41  H   UNL     1      -1.186  -9.870   8.167  1.00  0.00    +0.211 HD
ENDBRANCH  31  40
ENDBRANCH  25  26
ENDBRANCH   2  25
BRANCH   3  42
ATOM     42  O   UNL     1      -7.645  -8.769   9.094  1.00  0.00    -0.343 OA
BRANCH  42  43
ATOM     43  C   UNL     1      -7.927  -9.616  10.214  1.00  0.00    +0.270 C 
ATOM     44  C   UNL     1      -9.099 -10.545   9.801  1.00  0.00    +0.139 C 
ATOM     45  O   UNL     1      -8.262  -8.787  11.330  1.00  0.00    -0.342 OA
ATOM     46  C   UNL     1      -9.647 -11.311  11.014  1.00  0.00    +0.167 C 
ATOM     47  C   UNL     1      -8.719  -9.488  12.491  1.00  0.00    +0.178 C 
ATOM     48  C   UNL     1      -9.955 -10.343  12.159  1.00  0.00    +0.176 C 
BRANCH  44  49
ATOM     49  N   UNL     1      -8.694 -11.502   8.741  1.00  0.00    -0.321 NA
ATOM     50  H   UNL     1      -7.681 -11.614   8.784  1.00  0.00    +0.119 HD
ATOM     51  H   UNL     1      -8.904 -11.059   7.841  1.00  0.00    +0.119 HD
ENDBRANCH  44  49
BRANCH  46  52
ATOM     52  O   UNL     1     -10.853 -12.005  10.646  1.00  0.00    -0.388 OA
ATOM     53  H   UNL     1     -10.921 -11.897   9.675  1.00  0.00    +0.211 HD
ENDBRANCH  46  52
BRANCH  47  54
ATOM     54  C   UNL     1      -7.573 -10.249  13.185  1.00  0.00    +0.191 C 
BRANCH  54  55
ATOM     55  O   UNL     1      -6.372  -9.486  13.150  1.00  0.00    -0.394 OA
ATOM     56  H   UNL     1      -5.655 -10.066  13.475  1.00  0.00    +0.210 HD
ENDBRANCH  54  55
ENDBRANCH  47  54
BRANCH  48  57
ATOM     57  O   UNL     1     -10.472 -11.088  13.268  1.00  0.00    -0.388 OA
ATOM     58  H   UNL     1     -11.380 -11.384  13.032  1.00  0.00    +0.211 HD
ENDBRANCH  48  57
ENDBRANCH  42  43
ENDBRANCH   3  42
BRANCH   5  59
ATOM     59  O   UNL     1     -10.809  -5.243   7.820  1.00  0.00    -0.320 OA
BRANCH  59  60
ATOM     60  C   UNL     1     -11.945  -4.845   8.589  1.00  0.00    +0.273 C 
ATOM     61  C   UNL     1     -12.825  -6.066   8.986  1.00  0.00    +0.140 C 
ATOM     62  O   UNL     1     -11.405  -4.211   9.758  1.00  0.00    -0.342 OA
ATOM     63  C   UNL     1     -13.906  -5.613   9.991  1.00  0.00    +0.174 C 
ATOM     64  C   UNL     1     -12.418  -3.716  10.649  1.00  0.00    +0.178 C 
ATOM     65  C   UNL     1     -13.280  -4.865  11.173  1.00  0.00    +0.176 C 
BRANCH  61  66
ATOM     66  N   UNL     1     -13.481  -6.719   7.836  1.00  0.00    -0.321 NA
ATOM     67  H   UNL     1     -13.541  -7.729   8.021  1.00  0.00    +0.119 HD
ATOM     68  H   UNL     1     -12.863  -6.631   7.015  1.00  0.00    +0.119 HD
ENDBRANCH  61  66
BRANCH  63  69
ATOM     69  O   UNL     1     -14.597  -6.756  10.535  1.00  0.00    -0.343 OA
BRANCH  69  70
ATOM     70  C   UNL     1     -13.735  -7.604  11.298  1.00  0.00    +0.270 C 
ATOM     71  C   UNL     1     -14.494  -8.099  12.565  1.00  0.00    +0.139 C 
ATOM     72  O   UNL     1     -13.275  -8.665  10.447  1.00  0.00    -0.342 OA
ATOM     73  C   UNL     1     -13.918  -9.466  12.951  1.00  0.00    +0.167 C 
ATOM     74  C   UNL     1     -14.158  -9.798  10.433  1.00  0.00    +0.178 C 
ATOM     75  C   UNL     1     -14.168 -10.482  11.823  1.00  0.00    +0.176 C 
BRANCH  71  76
ATOM     76  N   UNL     1     -14.441  -7.140  13.699  1.00  0.00    -0.321 NA
ATOM     77  H   UNL     1     -13.910  -7.612  14.440  1.00  0.00    +0.119 HD
ATOM     78  H   UNL     1     -13.828  -6.356  13.425  1.00  0.00    +0.119 HD
ENDBRANCH  71  76
BRANCH  73  79
ATOM     79  O   UNL     1     -14.516  -9.947  14.166  1.00  0.00    -0.388 OA
ATOM     80  H   UNL     1     -15.477  -9.943  13.992  1.00  0.00    +0.211 HD
ENDBRANCH  73  79
BRANCH  74  81
ATOM     81  C   UNL     1     -13.741 -10.719   9.279  1.00  0.00    +0.191 C 
BRANCH  81  82
ATOM     82  O   UNL     1     -12.420 -10.408   8.826  1.00  0.00    -0.394 OA
ATOM     83  H   UNL     1     -11.858 -10.347   9.619  1.00  0.00    +0.210 HD
ENDBRANCH  81  82
ENDBRANCH  74  81
BRANCH  75  84
ATOM     84  O   UNL     1     -13.206 -11.532  11.994  1.00  0.00    -0.388 OA
ATOM     85  H   UNL     1     -12.906 -11.498  12.931  1.00  0.00    +0.211 HD
ENDBRANCH  75  84
ENDBRANCH  69  70
ENDBRANCH  63  69
BRANCH  64  86
ATOM     86  C   UNL     1     -11.702  -2.987  11.788  1.00  0.00    +0.191 C 
BRANCH  86  87
ATOM     87  O   UNL     1     -12.604  -2.055  12.396  1.00  0.00    -0.394 OA
ATOM     88  H   UNL     1     -12.106  -1.687  13.153  1.00  0.00    +0.210 HD
ENDBRANCH  86  87
ENDBRANCH  64  86
BRANCH  65  89
ATOM     89  O   UNL     1     -14.320  -4.368  12.024  1.00  0.00    -0.388 OA
ATOM     90  H   UNL     1     -14.298  -4.932  12.824  1.00  0.00    +0.211 HD
ENDBRANCH  65  89
ENDBRANCH  59  60
ENDBRANCH   5  59
BRANCH   4  91
ATOM     91  N   UNL     1      -9.177  -7.453   7.015  1.00  0.00    -0.321 NA
ATOM     92  H   UNL     1      -8.650  -6.713   6.544  1.00  0.00    +0.119 HD
ATOM     93  H   UNL     1     -10.107  -7.484   6.592  1.00  0.00    +0.119 HD
ENDBRANCH   4  91
TORSDOF 36
ENDMDL
MODEL 5
REMARK VINA RESULT:    -5.851     24.492     27.957
REMARK INTER + INTRA:         -21.845
REMARK INTER:                 -15.472
REMARK INTRA:                  -6.374
REMARK UNBOUND:                -7.101
REMARK SMILES N[C@@H]1[C@@H](O[C@@H]2[C@H](N)[C@H](O[C@@H]3O[C@H](CO)[C@@H](O)[C@H](O[C@@H]4O[C@@H](CO)[C@@H](O)[C@H](O)[C@H]4N)[C@H]3N)O[C@@H](CO[C@H]3O[C@@H](CO)[C@@H](O)[C@H](O)[C@H]3N)[C@H]2O[C@H]2O[C@@H](CO)[C@@H](O)[C@@H](O)[C@H]2N)O[C@H](CO)[C@H](O)[C@H]1O
REMARK SMILES IDX 33 1 47 2 5 3 6 4 8 5 32 6 34 7 35 8 36 9 38 10 41 11 37 12
REMARK SMILES IDX 43 13 45 14 39 15 40 16 42 18 44 20 46 22 48 25 49 26 58 27
REMARK SMILES IDX 50 28 56 29 51 30 54 31 59 32 57 35 52 37 53 38 55 40 4 42
REMARK SMILES IDX 3 43 2 44 60 45 66 46 61 47 64 48 1 49 67 52 62 54 63 55
REMARK SMILES IDX 65 57 9 59 10 60 30 61 11 62 17 63 12 64 15 65 31 66 18 69
REMARK SMILES IDX 19 70 28 71 20 72 26 73 21 74 24 75 29 76 27 79 22 81 23 82
REMARK SMILES IDX 25 84 13 86 14 87 16 89 7 91
REMARK H PARENT 40 17 42 19 44 21 46 23 46 24 59 33 59 34 57 36 53 39 55 41
REMARK H PARENT 1 50 1 51 67 53 63 56 65 58 31 67 31 68 29 77 29 78 27 80
REMARK H PARENT 23 83 25 85 14 88 16 90 7 92 7 93
ROOT
ATOM      1  C   UNL     1      -7.469  -8.937   8.409  1.00  0.00    +0.179 C 
ATOM      2  C   UNL     1      -8.267  -9.837   9.375  1.00  0.00    +0.183 C 
ATOM      3  C   UNL     1      -9.139  -8.998  10.331  1.00  0.00    +0.175 C 
ATOM      4  C   UNL     1     -10.002  -8.006   9.522  1.00  0.00    +0.140 C 
ATOM      5  C   UNL     1      -9.071  -7.152   8.616  1.00  0.00    +0.273 C 
ATOM      6  O   UNL     1      -8.324  -7.990   7.742  1.00  0.00    -0.342 OA
ENDROOT
BRANCH   1   7
ATOM      7  C   UNL     1      -6.255  -8.251   9.081  1.00  0.00    +0.198 C 
BRANCH   7   8
ATOM      8  O   UNL     1      -5.041  -8.566   8.392  1.00  0.00    -0.348 OA
BRANCH   8   9
ATOM      9  C   UNL     1      -3.873  -8.119   9.097  1.00  0.00    +0.270 C 
ATOM     10  C   UNL     1      -2.701  -8.297  11.203  1.00  0.00    +0.178 C 
ATOM     11  C   UNL     1      -1.640  -7.497  10.428  1.00  0.00    +0.176 C 
ATOM     12  O   UNL     1      -3.864  -8.623  10.430  1.00  0.00    -0.342 OA
ATOM     13  C   UNL     1      -1.332  -8.119   9.058  1.00  0.00    +0.167 C 
ATOM     14  C   UNL     1      -2.606  -8.583   8.316  1.00  0.00    +0.139 C 
BRANCH  10  15
ATOM     15  C   UNL     1      -2.180  -9.590  11.850  1.00  0.00    +0.191 C 
BRANCH  15  16
ATOM     16  O   UNL     1      -1.436  -9.325  13.037  1.00  0.00    -0.394 OA
ATOM     17  H   UNL     1      -1.826  -8.532  13.446  1.00  0.00    +0.210 HD
ENDBRANCH  15  16
ENDBRANCH  10  15
BRANCH  11  18
ATOM     18  O   UNL     1      -0.426  -7.308  11.164  1.00  0.00    -0.388 OA
ATOM     19  H   UNL     1      -0.179  -6.368  11.081  1.00  0.00    +0.211 HD
ENDBRANCH  11  18
BRANCH  13  20
ATOM     20  O   UNL     1      -0.642  -7.126   8.271  1.00  0.00    -0.388 OA
ATOM     21  H   UNL     1       0.244  -7.503   8.111  1.00  0.00    +0.211 HD
ENDBRANCH  13  20
BRANCH  14  22
ATOM     22  N   UNL     1      -2.590 -10.068   8.147  1.00  0.00    -0.321 NA
ATOM     23  H   UNL     1      -3.142 -10.254   7.294  1.00  0.00    +0.119 HD
ATOM     24  H   UNL     1      -1.629 -10.316   7.852  1.00  0.00    +0.119 HD
ENDBRANCH  14  22
ENDBRANCH   8   9
ENDBRANCH   7   8
ENDBRANCH   1   7
BRANCH   2  25
ATOM     25  O   UNL     1      -7.362 -10.638  10.157  1.00  0.00    -0.342 OA
BRANCH  25  26
ATOM     26  C   UNL     1      -7.428 -12.028   9.813  1.00  0.00    +0.270 C 
ATOM     27  C   UNL     1      -5.970 -12.585   9.765  1.00  0.00    +0.139 C 
ATOM     28  O   UNL     1      -8.073 -12.199   8.553  1.00  0.00    -0.342 OA
ATOM     29  C   UNL     1      -5.976 -14.080   9.340  1.00  0.00    +0.167 C 
ATOM     30  C   UNL     1      -8.104 -13.546   8.061  1.00  0.00    +0.178 C 
ATOM     31  C   UNL     1      -7.382 -14.565   8.968  1.00  0.00    +0.176 C 
BRANCH  27  32
ATOM     32  N   UNL     1      -5.084 -11.731   8.931  1.00  0.00    -0.321 NA
ATOM     33  H   UNL     1      -4.941 -10.852   9.440  1.00  0.00    +0.119 HD
ATOM     34  H   UNL     1      -4.161 -12.171   8.937  1.00  0.00    +0.119 HD
ENDBRANCH  27  32
BRANCH  29  35
ATOM     35  O   UNL     1      -5.102 -14.362   8.227  1.00  0.00    -0.388 OA
ATOM     36  H   UNL     1      -4.841 -13.479   7.888  1.00  0.00    +0.211 HD
ENDBRANCH  29  35
BRANCH  30  37
ATOM     37  C   UNL     1      -7.646 -13.539   6.588  1.00  0.00    +0.191 C 
BRANCH  37  38
ATOM     38  O   UNL     1      -6.652 -12.559   6.295  1.00  0.00    -0.394 OA
ATOM     39  H   UNL     1      -5.840 -13.042   6.018  1.00  0.00    +0.210 HD
ENDBRANCH  37  38
ENDBRANCH  30  37
BRANCH  31  40
ATOM     40  O   UNL     1      -7.296 -15.867   8.381  1.00  0.00    -0.388 OA
ATOM     41  H   UNL     1      -6.571 -16.347   8.824  1.00  0.00    +0.211 HD
ENDBRANCH  31  40
ENDBRANCH  25  26
ENDBRANCH   2  25
BRANCH   3  42
ATOM     42  O   UNL     1      -9.916  -9.910  11.138  1.00  0.00    -0.343 OA
BRANCH  42  43
ATOM     43  C   UNL     1      -9.870  -9.641  12.544  1.00  0.00    +0.270 C 
ATOM     44  C   UNL     1     -11.209  -8.952  12.922  1.00  0.00    +0.139 C 
ATOM     45  O   UNL     1      -8.739  -8.805  12.805  1.00  0.00    -0.342 OA
ATOM     46  C   UNL     1     -11.154  -8.390  14.350  1.00  0.00    +0.167 C 
ATOM     47  C   UNL     1      -8.641  -8.319  14.148  1.00  0.00    +0.178 C 
ATOM     48  C   UNL     1      -9.904  -7.529  14.536  1.00  0.00    +0.176 C 
BRANCH  44  49
ATOM     49  N   UNL     1     -12.360  -9.878  12.787  1.00  0.00    -0.321 NA
ATOM     50  H   UNL     1     -12.208 -10.668  13.414  1.00  0.00    +0.119 HD
ATOM     51  H   UNL     1     -12.336 -10.249  11.832  1.00  0.00    +0.119 HD
ENDBRANCH  44  49
BRANCH  46  52
ATOM     52  O   UNL     1     -12.322  -7.586  14.600  1.00  0.00    -0.388 OA
ATOM     53  H   UNL     1     -12.595  -7.814  15.512  1.00  0.00    +0.211 HD
ENDBRANCH  46  52
BRANCH  47  54
ATOM     54  C   UNL     1      -8.251  -9.439  15.131  1.00  0.00    +0.191 C 
BRANCH  54  55
ATOM     55  O   UNL     1      -7.016 -10.036  14.748  1.00  0.00    -0.394 OA
ATOM     56  H   UNL     1      -7.032 -10.124  13.775  1.00  0.00    +0.210 HD
ENDBRANCH  54  55
ENDBRANCH  47  54
BRANCH  48  57
ATOM     57  O   UNL     1      -9.890  -7.015  15.873  1.00  0.00    -0.388 OA
ATOM     58  H   UNL     1      -9.809  -7.780  16.486  1.00  0.00    +0.211 HD
ENDBRANCH  48  57
ENDBRANCH  42  43
ENDBRANCH   3  42
BRANCH   5  59
ATOM     59  O   UNL     1      -9.894  -6.258   7.863  1.00  0.00    -0.320 OA
BRANCH  59  60
ATOM     60  C   UNL     1     -10.135  -5.006   8.508  1.00  0.00    +0.273 C 
ATOM     61  C   UNL     1     -11.269  -5.116   9.569  1.00  0.00    +0.140 C 
ATOM     62  O   UNL     1      -8.891  -4.660   9.134  1.00  0.00    -0.342 OA
ATOM     63  C   UNL     1     -11.337  -3.807  10.383  1.00  0.00    +0.174 C 
ATOM     64  C   UNL     1      -8.937  -3.398   9.819  1.00  0.00    +0.178 C 
ATOM     65  C   UNL     1      -9.963  -3.440  10.952  1.00  0.00    +0.176 C 
BRANCH  61  66
ATOM     66  N   UNL     1     -12.598  -5.390   8.986  1.00  0.00    -0.321 NA
ATOM     67  H   UNL     1     -12.470  -5.917   8.112  1.00  0.00    +0.119 HD
ATOM     68  H   UNL     1     -13.020  -4.493   8.702  1.00  0.00    +0.119 HD
ENDBRANCH  61  66
BRANCH  63  69
ATOM     69  O   UNL     1     -12.230  -3.958  11.506  1.00  0.00    -0.343 OA
BRANCH  69  70
ATOM     70  C   UNL     1     -13.326  -3.041  11.461  1.00  0.00    +0.270 C 
ATOM     71  C   UNL     1     -14.604  -3.743  12.009  1.00  0.00    +0.139 C 
ATOM     72  O   UNL     1     -12.956  -1.860  12.189  1.00  0.00    -0.342 OA
ATOM     73  C   UNL     1     -15.504  -2.663  12.619  1.00  0.00    +0.167 C 
ATOM     74  C   UNL     1     -13.258  -1.946  13.591  1.00  0.00    +0.178 C 
ATOM     75  C   UNL     1     -14.792  -1.988  13.804  1.00  0.00    +0.176 C 
BRANCH  71  76
ATOM     76  N   UNL     1     -15.324  -4.545  10.985  1.00  0.00    -0.321 NA
ATOM     77  H   UNL     1     -14.716  -4.553  10.158  1.00  0.00    +0.119 HD
ATOM     78  H   UNL     1     -15.322  -5.530  11.294  1.00  0.00    +0.119 HD
ENDBRANCH  71  76
BRANCH  73  79
ATOM     79  O   UNL     1     -16.746  -3.230  13.071  1.00  0.00    -0.388 OA
ATOM     80  H   UNL     1     -16.761  -3.067  14.034  1.00  0.00    +0.211 HD
ENDBRANCH  73  79
BRANCH  74  81
ATOM     81  C   UNL     1     -12.553  -0.787  14.307  1.00  0.00    +0.191 C 
BRANCH  81  82
ATOM     82  O   UNL     1     -11.205  -0.644  13.849  1.00  0.00    -0.394 OA
ATOM     83  H   UNL     1     -11.084  -1.288  13.128  1.00  0.00    +0.210 HD
ENDBRANCH  81  82
ENDBRANCH  74  81
BRANCH  75  84
ATOM     84  O   UNL     1     -15.419  -0.712  13.989  1.00  0.00    -0.388 OA
ATOM     85  H   UNL     1     -14.800  -0.160  14.519  1.00  0.00    +0.211 HD
ENDBRANCH  75  84
ENDBRANCH  69  70
ENDBRANCH  63  69
BRANCH  64  86
ATOM     86  C   UNL     1      -7.528  -3.117  10.348  1.00  0.00    +0.191 C 
BRANCH  86  87
ATOM     87  O   UNL     1      -7.423  -1.735  10.709  1.00  0.00    -0.394 OA
ATOM     88  H   UNL     1      -8.120  -1.603  11.382  1.00  0.00    +0.210 HD
ENDBRANCH  86  87
ENDBRANCH  64  86
BRANCH  65  89
ATOM     89  O   UNL     1     -10.044  -2.168  11.607  1.00  0.00    -0.388 OA
ATOM     90  H   UNL     1      -9.623  -2.294  12.482  1.00  0.00    +0.211 HD
ENDBRANCH  65  89
ENDBRANCH  59  60
ENDBRANCH   5  59
BRANCH   4  91
ATOM     91  N   UNL     1     -11.052  -8.720   8.753  1.00  0.00    -0.321 NA
ATOM     92  H   UNL     1     -11.465  -9.424   9.370  1.00  0.00    +0.119 HD
ATOM     93  H   UNL     1     -10.591  -9.217   7.986  1.00  0.00    +0.119 HD
ENDBRANCH   4  91
TORSDOF 36
ENDMDL
MODEL 6
REMARK VINA RESULT:    -5.843      2.804      6.461
REMARK INTER + INTRA:         -21.824
REMARK INTER:                 -15.046
REMARK INTRA:                  -6.779
REMARK UNBOUND:                -7.101
REMARK SMILES N[C@@H]1[C@@H](O[C@@H]2[C@H](N)[C@H](O[C@@H]3O[C@H](CO)[C@@H](O)[C@H](O[C@@H]4O[C@@H](CO)[C@@H](O)[C@H](O)[C@H]4N)[C@H]3N)O[C@@H](CO[C@H]3O[C@@H](CO)[C@@H](O)[C@H](O)[C@H]3N)[C@H]2O[C@H]2O[C@@H](CO)[C@@H](O)[C@@H](O)[C@H]2N)O[C@H](CO)[C@H](O)[C@H]1O
REMARK SMILES IDX 33 1 47 2 5 3 6 4 8 5 32 6 34 7 35 8 36 9 38 10 41 11 37 12
REMARK SMILES IDX 43 13 45 14 39 15 40 16 42 18 44 20 46 22 48 25 49 26 58 27
REMARK SMILES IDX 50 28 56 29 51 30 54 31 59 32 57 35 52 37 53 38 55 40 4 42
REMARK SMILES IDX 3 43 2 44 60 45 66 46 61 47 64 48 1 49 67 52 62 54 63 55
REMARK SMILES IDX 65 57 9 59 10 60 30 61 11 62 17 63 12 64 15 65 31 66 18 69
REMARK SMILES IDX 19 70 28 71 20 72 26 73 21 74 24 75 29 76 27 79 22 81 23 82
REMARK SMILES IDX 25 84 13 86 14 87 16 89 7 91
REMARK H PARENT 40 17 42 19 44 21 46 23 46 24 59 33 59 34 57 36 53 39 55 41
REMARK H PARENT 1 50 1 51 67 53 63 56 65 58 31 67 31 68 29 77 29 78 27 80
REMARK H PARENT 23 83 25 85 14 88 16 90 7 92 7 93
ROOT
ATOM      1  C   UNL     1     -16.526  14.598  -5.407  1.00  0.00    +0.179 C 
ATOM      2  C   UNL     1     -17.143  13.779  -4.254  1.00  0.00    +0.183 C 
ATOM      3  C   UNL     1     -17.871  14.692  -3.246  1.00  0.00    +0.175 C 
ATOM      4  C   UNL     1     -18.871  15.604  -3.989  1.00  0.00    +0.140 C 
ATOM      5  C   UNL     1     -18.111  16.383  -5.100  1.00  0.00    +0.273 C 
ATOM      6  O   UNL     1     -17.494  15.479  -6.007  1.00  0.00    -0.342 OA
ENDROOT
BRANCH   1   7
ATOM      7  C   UNL     1     -15.235  15.348  -4.996  1.00  0.00    +0.198 C 
BRANCH   7   8
ATOM      8  O   UNL     1     -14.104  14.861  -5.724  1.00  0.00    -0.348 OA
BRANCH   8   9
ATOM      9  C   UNL     1     -12.979  15.750  -5.658  1.00  0.00    +0.270 C 
ATOM     10  C   UNL     1     -12.176  17.777  -4.615  1.00  0.00    +0.178 C 
ATOM     11  C   UNL     1     -10.875  17.363  -5.321  1.00  0.00    +0.176 C 
ATOM     12  O   UNL     1     -13.262  16.860  -4.811  1.00  0.00    -0.342 OA
ATOM     13  C   UNL     1     -10.514  15.893  -5.057  1.00  0.00    +0.167 C 
ATOM     14  C   UNL     1     -11.740  14.956  -5.143  1.00  0.00    +0.139 C 
BRANCH  10  15
ATOM     15  C   UNL     1     -12.033  18.030  -3.105  1.00  0.00    +0.191 C 
BRANCH  15  16
ATOM     16  O   UNL     1     -12.663  17.009  -2.335  1.00  0.00    -0.394 OA
ATOM     17  H   UNL     1     -12.660  17.308  -1.408  1.00  0.00    +0.210 HD
ENDBRANCH  15  16
ENDBRANCH  10  15
BRANCH  11  18
ATOM     18  O   UNL     1      -9.763  18.206  -4.996  1.00  0.00    -0.388 OA
ATOM     19  H   UNL     1     -10.104  19.115  -4.906  1.00  0.00    +0.211 HD
ENDBRANCH  11  18
BRANCH  13  20
ATOM     20  O   UNL     1      -9.529  15.501  -6.036  1.00  0.00    -0.388 OA
ATOM     21  H   UNL     1      -9.388  14.547  -5.881  1.00  0.00    +0.211 HD
ENDBRANCH  13  20
BRANCH  14  22
ATOM     22  N   UNL     1     -12.010  14.340  -3.809  1.00  0.00    -0.321 NA
ATOM     23  H   UNL     1     -11.126  14.427  -3.281  1.00  0.00    +0.119 HD
ATOM     24  H   UNL     1     -12.637  14.994  -3.308  1.00  0.00    +0.119 HD
ENDBRANCH  14  22
ENDBRANCH   8   9
ENDBRANCH   7   8
ENDBRANCH   1   7
BRANCH   2  25
ATOM     25  O   UNL     1     -16.110  13.055  -3.561  1.00  0.00    -0.342 OA
BRANCH  25  26
ATOM     26  C   UNL     1     -15.422  12.134  -4.417  1.00  0.00    +0.270 C 
ATOM     27  C   UNL     1     -16.145  10.754  -4.322  1.00  0.00    +0.139 C 
ATOM     28  O   UNL     1     -14.057  12.014  -4.026  1.00  0.00    -0.342 OA
ATOM     29  C   UNL     1     -15.407   9.696  -5.190  1.00  0.00    +0.167 C 
ATOM     30  C   UNL     1     -13.296  11.039  -4.754  1.00  0.00    +0.178 C 
ATOM     31  C   UNL     1     -14.116  10.255  -5.800  1.00  0.00    +0.176 C 
BRANCH  27  32
ATOM     32  N   UNL     1     -16.343  10.333  -2.910  1.00  0.00    -0.321 NA
ATOM     33  H   UNL     1     -17.219  10.756  -2.586  1.00  0.00    +0.119 HD
ATOM     34  H   UNL     1     -16.545   9.331  -2.927  1.00  0.00    +0.119 HD
ENDBRANCH  27  32
BRANCH  29  35
ATOM     35  O   UNL     1     -15.071   8.495  -4.466  1.00  0.00    -0.388 OA
ATOM     36  H   UNL     1     -15.670   8.499  -3.690  1.00  0.00    +0.211 HD
ENDBRANCH  29  35
BRANCH  30  37
ATOM     37  C   UNL     1     -12.521  10.171  -3.742  1.00  0.00    +0.191 C 
BRANCH  37  38
ATOM     38  O   UNL     1     -11.158  10.555  -3.572  1.00  0.00    -0.394 OA
ATOM     39  H   UNL     1     -10.702   9.815  -3.109  1.00  0.00    +0.210 HD
ENDBRANCH  37  38
ENDBRANCH  30  37
BRANCH  31  40
ATOM     40  O   UNL     1     -13.373   9.189  -6.399  1.00  0.00    -0.388 OA
ATOM     41  H   UNL     1     -12.427   9.345  -6.217  1.00  0.00    +0.211 HD
ENDBRANCH  31  40
ENDBRANCH  25  26
ENDBRANCH   2  25
BRANCH   3  42
ATOM     42  O   UNL     1     -18.492  13.848  -2.252  1.00  0.00    -0.343 OA
BRANCH  42  43
ATOM     43  C   UNL     1     -18.070  14.108  -0.908  1.00  0.00    +0.270 C 
ATOM     44  C   UNL     1     -18.129  12.760  -0.142  1.00  0.00    +0.139 C 
ATOM     45  O   UNL     1     -18.946  15.089  -0.345  1.00  0.00    -0.342 OA
ATOM     46  C   UNL     1     -17.947  12.977   1.368  1.00  0.00    +0.167 C 
ATOM     47  C   UNL     1     -18.750  15.347   1.049  1.00  0.00    +0.178 C 
ATOM     48  C   UNL     1     -18.910  14.055   1.870  1.00  0.00    +0.176 C 
BRANCH  44  49
ATOM     49  N   UNL     1     -17.114  11.800  -0.639  1.00  0.00    -0.321 NA
ATOM     50  H   UNL     1     -16.769  11.261   0.156  1.00  0.00    +0.119 HD
ATOM     51  H   UNL     1     -16.324  12.352  -0.986  1.00  0.00    +0.119 HD
ENDBRANCH  44  49
BRANCH  46  52
ATOM     52  O   UNL     1     -18.207  11.748   2.070  1.00  0.00    -0.388 OA
ATOM     53  H   UNL     1     -17.989  11.040   1.431  1.00  0.00    +0.211 HD
ENDBRANCH  46  52
BRANCH  47  54
ATOM     54  C   UNL     1     -17.444  16.121   1.308  1.00  0.00    +0.191 C 
BRANCH  54  55
ATOM     55  O   UNL     1     -17.522  16.844   2.532  1.00  0.00    -0.394 OA
ATOM     56  H   UNL     1     -17.908  17.718   2.323  1.00  0.00    +0.210 HD
ENDBRANCH  54  55
ENDBRANCH  47  54
BRANCH  48  57
ATOM     57  O   UNL     1     -18.720  14.225   3.280  1.00  0.00    -0.388 OA
ATOM     58  H   UNL     1     -18.132  13.501   3.591  1.00  0.00    +0.211 HD
ENDBRANCH  48  57
ENDBRANCH  42  43
ENDBRANCH   3  42
BRANCH   5  59
ATOM     59  O   UNL     1     -19.061  17.204  -5.784  1.00  0.00    -0.320 OA
BRANCH  59  60
ATOM     60  C   UNL     1     -18.713  18.589  -5.824  1.00  0.00    +0.273 C 
ATOM     61  C   UNL     1     -18.446  19.154  -4.398  1.00  0.00    +0.140 C 
ATOM     62  O   UNL     1     -17.523  18.655  -6.624  1.00  0.00    -0.342 OA
ATOM     63  C   UNL     1     -17.865  20.579  -4.513  1.00  0.00    +0.174 C 
ATOM     64  C   UNL     1     -17.036  19.995  -6.797  1.00  0.00    +0.178 C 
ATOM     65  C   UNL     1     -16.652  20.605  -5.449  1.00  0.00    +0.176 C 
BRANCH  61  66
ATOM     66  N   UNL     1     -19.650  19.193  -3.544  1.00  0.00    -0.321 NA
ATOM     67  H   UNL     1     -20.473  19.348  -4.143  1.00  0.00    +0.119 HD
ATOM     68  H   UNL     1     -19.595  20.026  -2.940  1.00  0.00    +0.119 HD
ENDBRANCH  61  66
BRANCH  63  69
ATOM     69  O   UNL     1     -17.413  21.043  -3.225  1.00  0.00    -0.343 OA
BRANCH  69  70
ATOM     70  C   UNL     1     -16.573  20.092  -2.565  1.00  0.00    +0.270 C 
ATOM     71  C   UNL     1     -15.294  20.813  -2.045  1.00  0.00    +0.139 C 
ATOM     72  O   UNL     1     -17.338  19.453  -1.533  1.00  0.00    -0.342 OA
ATOM     73  C   UNL     1     -14.802  20.057  -0.807  1.00  0.00    +0.167 C 
ATOM     74  C   UNL     1     -17.296  20.160  -0.282  1.00  0.00    +0.178 C 
ATOM     75  C   UNL     1     -15.863  20.116   0.306  1.00  0.00    +0.176 C 
BRANCH  71  76
ATOM     76  N   UNL     1     -14.227  20.941  -3.072  1.00  0.00    -0.321 NA
ATOM     77  H   UNL     1     -14.706  20.903  -3.979  1.00  0.00    +0.119 HD
ATOM     78  H   UNL     1     -13.861  21.905  -3.033  1.00  0.00    +0.119 HD
ENDBRANCH  71  76
BRANCH  73  79
ATOM     79  O   UNL     1     -13.571  20.618  -0.320  1.00  0.00    -0.388 OA
ATOM     80  H   UNL     1     -12.869  20.086  -0.742  1.00  0.00    +0.211 HD
ENDBRANCH  73  79
BRANCH  74  81
ATOM     81  C   UNL     1     -18.374  19.573   0.639  1.00  0.00    +0.191 C 
BRANCH  81  82
ATOM     82  O   UNL     1     -18.060  19.815   2.014  1.00  0.00    -0.394 OA
ATOM     83  H   UNL     1     -18.403  19.055   2.518  1.00  0.00    +0.210 HD
ENDBRANCH  81  82
ENDBRANCH  74  81
BRANCH  75  84
ATOM     84  O   UNL     1     -15.597  19.017   1.188  1.00  0.00    -0.388 OA
ATOM     85  H   UNL     1     -15.058  18.367   0.684  1.00  0.00    +0.211 HD
ENDBRANCH  75  84
ENDBRANCH  69  70
ENDBRANCH  63  69
BRANCH  64  86
ATOM     86  C   UNL     1     -15.834  19.920  -7.743  1.00  0.00    +0.191 C 
BRANCH  86  87
ATOM     87  O   UNL     1     -16.274  19.495  -9.037  1.00  0.00    -0.394 OA
ATOM     88  H   UNL     1     -15.731  18.707  -9.236  1.00  0.00    +0.210 HD
ENDBRANCH  86  87
ENDBRANCH  64  86
BRANCH  65  89
ATOM     89  O   UNL     1     -16.209  21.958  -5.615  1.00  0.00    -0.388 OA
ATOM     90  H   UNL     1     -15.343  21.899  -6.068  1.00  0.00    +0.211 HD
ENDBRANCH  65  89
ENDBRANCH  59  60
ENDBRANCH   5  59
BRANCH   4  91
ATOM     91  N   UNL     1     -20.013  14.819  -4.519  1.00  0.00    -0.321 NA
ATOM     92  H   UNL     1     -19.638  13.955  -4.917  1.00  0.00    +0.119 HD
ATOM     93  H   UNL     1     -20.430  15.354  -5.285  1.00  0.00    +0.119 HD
ENDBRANCH   4  91
TORSDOF 36
ENDMDL
MODEL 7
REMARK VINA RESULT:    -5.817     28.383     31.845
REMARK INTER + INTRA:         -21.761
REMARK INTER:                 -14.497
REMARK INTRA:                  -7.263
REMARK UNBOUND:                -7.101
REMARK SMILES N[C@@H]1[C@@H](O[C@@H]2[C@H](N)[C@H](O[C@@H]3O[C@H](CO)[C@@H](O)[C@H](O[C@@H]4O[C@@H](CO)[C@@H](O)[C@H](O)[C@H]4N)[C@H]3N)O[C@@H](CO[C@H]3O[C@@H](CO)[C@@H](O)[C@H](O)[C@H]3N)[C@H]2O[C@H]2O[C@@H](CO)[C@@H](O)[C@@H](O)[C@H]2N)O[C@H](CO)[C@H](O)[C@H]1O
REMARK SMILES IDX 33 1 47 2 5 3 6 4 8 5 32 6 34 7 35 8 36 9 38 10 41 11 37 12
REMARK SMILES IDX 43 13 45 14 39 15 40 16 42 18 44 20 46 22 48 25 49 26 58 27
REMARK SMILES IDX 50 28 56 29 51 30 54 31 59 32 57 35 52 37 53 38 55 40 4 42
REMARK SMILES IDX 3 43 2 44 60 45 66 46 61 47 64 48 1 49 67 52 62 54 63 55
REMARK SMILES IDX 65 57 9 59 10 60 30 61 11 62 17 63 12 64 15 65 31 66 18 69
REMARK SMILES IDX 19 70 28 71 20 72 26 73 21 74 24 75 29 76 27 79 22 81 23 82
REMARK SMILES IDX 25 84 13 86 14 87 16 89 7 91
REMARK H PARENT 40 17 42 19 44 21 46 23 46 24 59 33 59 34 57 36 53 39 55 41
REMARK H PARENT 1 50 1 51 67 53 63 56 65 58 31 67 31 68 29 77 29 78 27 80
REMARK H PARENT 23 83 25 85 14 88 16 90 7 92 7 93
ROOT
ATOM      1  C   UNL     1      -6.804  -9.608  12.247  1.00  0.00    +0.179 C 
ATOM      2  C   UNL     1      -7.816  -9.967  11.140  1.00  0.00    +0.183 C 
ATOM      3  C   UNL     1      -7.780 -11.474  10.816  1.00  0.00    +0.175 C 
ATOM      4  C   UNL     1      -7.934 -12.296  12.114  1.00  0.00    +0.140 C 
ATOM      5  C   UNL     1      -6.840 -11.849  13.125  1.00  0.00    +0.273 C 
ATOM      6  O   UNL     1      -6.956 -10.458  13.399  1.00  0.00    -0.342 OA
ENDROOT
BRANCH   1   7
ATOM      7  C   UNL     1      -5.341  -9.570  11.742  1.00  0.00    +0.198 C 
BRANCH   7   8
ATOM      8  O   UNL     1      -5.008  -8.278  11.226  1.00  0.00    -0.348 OA
BRANCH   8   9
ATOM      9  C   UNL     1      -3.811  -8.288  10.433  1.00  0.00    +0.270 C 
ATOM     10  C   UNL     1      -2.051  -9.727   9.613  1.00  0.00    +0.178 C 
ATOM     11  C   UNL     1      -1.681  -8.457   8.829  1.00  0.00    +0.176 C 
ATOM     12  O   UNL     1      -3.217  -9.583  10.436  1.00  0.00    -0.342 OA
ATOM     13  C   UNL     1      -2.892  -7.848   8.106  1.00  0.00    +0.167 C 
ATOM     14  C   UNL     1      -4.164  -7.839   8.983  1.00  0.00    +0.139 C 
BRANCH  10  15
ATOM     15  C   UNL     1      -2.230 -10.984   8.747  1.00  0.00    +0.191 C 
BRANCH  15  16
ATOM     16  O   UNL     1      -3.529 -11.551   8.901  1.00  0.00    -0.394 OA
ATOM     17  H   UNL     1      -3.405 -12.475   9.183  1.00  0.00    +0.210 HD
ENDBRANCH  15  16
ENDBRANCH  10  15
BRANCH  11  18
ATOM     18  O   UNL     1      -0.607  -8.658   7.901  1.00  0.00    -0.388 OA
ATOM     19  H   UNL     1      -0.373  -7.786   7.535  1.00  0.00    +0.211 HD
ENDBRANCH  11  18
BRANCH  13  20
ATOM     20  O   UNL     1      -2.547  -6.499   7.731  1.00  0.00    -0.388 OA
ATOM     21  H   UNL     1      -2.431  -6.529   6.762  1.00  0.00    +0.211 HD
ENDBRANCH  13  20
BRANCH  14  22
ATOM     22  N   UNL     1      -5.208  -8.724   8.383  1.00  0.00    -0.321 NA
ATOM     23  H   UNL     1      -6.075  -8.525   8.909  1.00  0.00    +0.119 HD
ATOM     24  H   UNL     1      -5.418  -8.334   7.447  1.00  0.00    +0.119 HD
ENDBRANCH  14  22
ENDBRANCH   8   9
ENDBRANCH   7   8
ENDBRANCH   1   7
BRANCH   2  25
ATOM     25  O   UNL     1      -7.514  -9.228   9.942  1.00  0.00    -0.342 OA
BRANCH  25  26
ATOM     26  C   UNL     1      -8.341  -8.067   9.794  1.00  0.00    +0.270 C 
ATOM     27  C   UNL     1      -9.018  -8.130   8.389  1.00  0.00    +0.139 C 
ATOM     28  O   UNL     1      -7.562  -6.880   9.925  1.00  0.00    -0.342 OA
ATOM     29  C   UNL     1      -9.887  -6.864   8.150  1.00  0.00    +0.167 C 
ATOM     30  C   UNL     1      -8.273  -5.656   9.694  1.00  0.00    +0.178 C 
ATOM     31  C   UNL     1      -9.750  -5.850   9.293  1.00  0.00    +0.176 C 
BRANCH  27  32
ATOM     32  N   UNL     1      -8.025  -8.384   7.313  1.00  0.00    -0.321 NA
ATOM     33  H   UNL     1      -7.198  -8.802   7.754  1.00  0.00    +0.119 HD
ATOM     34  H   UNL     1      -8.404  -9.138   6.735  1.00  0.00    +0.119 HD
ENDBRANCH  27  32
BRANCH  29  35
ATOM     35  O   UNL     1      -9.580  -6.183   6.916  1.00  0.00    -0.388 OA
ATOM     36  H   UNL     1      -8.663  -5.857   7.036  1.00  0.00    +0.211 HD
ENDBRANCH  29  35
BRANCH  30  37
ATOM     37  C   UNL     1      -7.441  -4.782   8.732  1.00  0.00    +0.191 C 
BRANCH  37  38
ATOM     38  O   UNL     1      -7.018  -3.542   9.294  1.00  0.00    -0.394 OA
ATOM     39  H   UNL     1      -6.034  -3.524   9.252  1.00  0.00    +0.210 HD
ENDBRANCH  37  38
ENDBRANCH  30  37
BRANCH  31  40
ATOM     40  O   UNL     1     -10.390  -4.625   8.921  1.00  0.00    -0.388 OA
ATOM     41  H   UNL     1      -9.835  -4.193   8.245  1.00  0.00    +0.211 HD
ENDBRANCH  31  40
ENDBRANCH  25  26
ENDBRANCH   2  25
BRANCH   3  42
ATOM     42  O   UNL     1      -8.811 -11.743   9.840  1.00  0.00    -0.343 OA
BRANCH  42  43
ATOM     43  C   UNL     1      -8.491 -12.785   8.912  1.00  0.00    +0.270 C 
ATOM     44  C   UNL     1      -7.657 -12.142   7.772  1.00  0.00    +0.139 C 
ATOM     45  O   UNL     1      -9.714 -13.353   8.434  1.00  0.00    -0.342 OA
ATOM     46  C   UNL     1      -7.486 -13.118   6.599  1.00  0.00    +0.167 C 
ATOM     47  C   UNL     1      -9.567 -14.309   7.380  1.00  0.00    +0.178 C 
ATOM     48  C   UNL     1      -8.842 -13.685   6.174  1.00  0.00    +0.176 C 
BRANCH  44  49
ATOM     49  N   UNL     1      -6.328 -11.689   8.251  1.00  0.00    -0.321 NA
ATOM     50  H   UNL     1      -5.671 -12.462   8.141  1.00  0.00    +0.119 HD
ATOM     51  H   UNL     1      -6.415 -11.516   9.257  1.00  0.00    +0.119 HD
ENDBRANCH  44  49
BRANCH  46  52
ATOM     52  O   UNL     1      -6.890 -12.434   5.481  1.00  0.00    -0.388 OA
ATOM     53  H   UNL     1      -5.939 -12.369   5.702  1.00  0.00    +0.211 HD
ENDBRANCH  46  52
BRANCH  47  54
ATOM     54  C   UNL     1      -8.959 -15.629   7.889  1.00  0.00    +0.191 C 
BRANCH  54  55
ATOM     55  O   UNL     1      -9.724 -16.150   8.971  1.00  0.00    -0.394 OA
ATOM     56  H   UNL     1      -9.679 -15.493   9.694  1.00  0.00    +0.210 HD
ENDBRANCH  54  55
ENDBRANCH  47  54
BRANCH  48  57
ATOM     57  O   UNL     1      -8.646 -14.582   5.075  1.00  0.00    -0.388 OA
ATOM     58  H   UNL     1      -7.737 -14.435   4.729  1.00  0.00    +0.211 HD
ENDBRANCH  48  57
ENDBRANCH  42  43
ENDBRANCH   3  42
BRANCH   5  59
ATOM     59  O   UNL     1      -7.017 -12.608  14.323  1.00  0.00    -0.320 OA
BRANCH  59  60
ATOM     60  C   UNL     1      -5.827 -13.249  14.788  1.00  0.00    +0.273 C 
ATOM     61  C   UNL     1      -5.145 -14.079  13.661  1.00  0.00    +0.140 C 
ATOM     62  O   UNL     1      -4.970 -12.181  15.218  1.00  0.00    -0.342 OA
ATOM     63  C   UNL     1      -3.763 -14.563  14.148  1.00  0.00    +0.174 C 
ATOM     64  C   UNL     1      -3.718 -12.645  15.749  1.00  0.00    +0.178 C 
ATOM     65  C   UNL     1      -2.925 -13.395  14.678  1.00  0.00    +0.176 C 
BRANCH  61  66
ATOM     66  N   UNL     1      -5.938 -15.245  13.226  1.00  0.00    -0.321 NA
ATOM     67  H   UNL     1      -6.158 -15.820  14.051  1.00  0.00    +0.119 HD
ATOM     68  H   UNL     1      -5.342 -15.842  12.632  1.00  0.00    +0.119 HD
ENDBRANCH  61  66
BRANCH  63  69
ATOM     69  O   UNL     1      -3.023 -15.150  13.058  1.00  0.00    -0.343 OA
BRANCH  69  70
ATOM     70  C   UNL     1      -2.684 -14.194  12.050  1.00  0.00    +0.270 C 
ATOM     71  C   UNL     1      -1.201 -14.406  11.623  1.00  0.00    +0.139 C 
ATOM     72  O   UNL     1      -3.622 -14.324  10.971  1.00  0.00    -0.342 OA
ATOM     73  C   UNL     1      -1.065 -13.951  10.166  1.00  0.00    +0.167 C 
ATOM     74  C   UNL     1      -3.223 -15.299   9.993  1.00  0.00    +0.178 C 
ATOM     75  C   UNL     1      -1.947 -14.822   9.255  1.00  0.00    +0.176 C 
BRANCH  71  76
ATOM     76  N   UNL     1      -0.226 -13.716  12.508  1.00  0.00    -0.321 NA
ATOM     77  H   UNL     1      -0.173 -14.283  13.362  1.00  0.00    +0.119 HD
ATOM     78  H   UNL     1       0.713 -13.822  12.091  1.00  0.00    +0.119 HD
ENDBRANCH  71  76
BRANCH  73  79
ATOM     79  O   UNL     1       0.302 -14.039   9.729  1.00  0.00    -0.388 OA
ATOM     80  H   UNL     1       0.400 -13.328   9.066  1.00  0.00    +0.211 HD
ENDBRANCH  73  79
BRANCH  74  81
ATOM     81  C   UNL     1      -4.419 -15.574   9.072  1.00  0.00    +0.191 C 
BRANCH  81  82
ATOM     82  O   UNL     1      -4.005 -16.252   7.883  1.00  0.00    -0.394 OA
ATOM     83  H   UNL     1      -4.055 -17.207   8.072  1.00  0.00    +0.210 HD
ENDBRANCH  81  82
ENDBRANCH  74  81
BRANCH  75  84
ATOM     84  O   UNL     1      -2.179 -14.065   8.060  1.00  0.00    -0.388 OA
ATOM     85  H   UNL     1      -3.080 -13.676   8.135  1.00  0.00    +0.211 HD
ENDBRANCH  75  84
ENDBRANCH  69  70
ENDBRANCH  63  69
BRANCH  64  86
ATOM     86  C   UNL     1      -2.957 -11.415  16.253  1.00  0.00    +0.191 C 
BRANCH  86  87
ATOM     87  O   UNL     1      -1.926 -11.833  17.155  1.00  0.00    -0.394 OA
ATOM     88  H   UNL     1      -1.996 -12.808  17.177  1.00  0.00    +0.210 HD
ENDBRANCH  86  87
ENDBRANCH  64  86
BRANCH  65  89
ATOM     89  O   UNL     1      -1.697 -13.898  15.219  1.00  0.00    -0.388 OA
ATOM     90  H   UNL     1      -1.432 -13.258  15.911  1.00  0.00    +0.211 HD
ENDBRANCH  65  89
ENDBRANCH  59  60
ENDBRANCH   5  59
BRANCH   4  91
ATOM     91  N   UNL     1      -9.307 -12.168  12.663  1.00  0.00    -0.321 NA
ATOM     92  H   UNL     1      -9.953 -12.092  11.873  1.00  0.00    +0.119 HD
ATOM     93  H   UNL     1      -9.354 -11.288  13.183  1.00  0.00    +0.119 HD
ENDBRANCH   4  91
TORSDOF 36
ENDMDL
MODEL 8
REMARK VINA RESULT:    -5.695      2.477     11.450
REMARK INTER + INTRA:         -21.453
REMARK INTER:                 -15.468
REMARK INTRA:                  -5.985
REMARK UNBOUND:                -7.101
REMARK SMILES N[C@@H]1[C@@H](O[C@@H]2[C@H](N)[C@H](O[C@@H]3O[C@H](CO)[C@@H](O)[C@H](O[C@@H]4O[C@@H](CO)[C@@H](O)[C@H](O)[C@H]4N)[C@H]3N)O[C@@H](CO[C@H]3O[C@@H](CO)[C@@H](O)[C@H](O)[C@H]3N)[C@H]2O[C@H]2O[C@@H](CO)[C@@H](O)[C@@H](O)[C@H]2N)O[C@H](CO)[C@H](O)[C@H]1O
REMARK SMILES IDX 33 1 47 2 5 3 6 4 8 5 32 6 34 7 35 8 36 9 38 10 41 11 37 12
REMARK SMILES IDX 43 13 45 14 39 15 40 16 42 18 44 20 46 22 48 25 49 26 58 27
REMARK SMILES IDX 50 28 56 29 51 30 54 31 59 32 57 35 52 37 53 38 55 40 4 42
REMARK SMILES IDX 3 43 2 44 60 45 66 46 61 47 64 48 1 49 67 52 62 54 63 55
REMARK SMILES IDX 65 57 9 59 10 60 30 61 11 62 17 63 12 64 15 65 31 66 18 69
REMARK SMILES IDX 19 70 28 71 20 72 26 73 21 74 24 75 29 76 27 79 22 81 23 82
REMARK SMILES IDX 25 84 13 86 14 87 16 89 7 91
REMARK H PARENT 40 17 42 19 44 21 46 23 46 24 59 33 59 34 57 36 53 39 55 41
REMARK H PARENT 1 50 1 51 67 53 63 56 65 58 31 67 31 68 29 77 29 78 27 80
REMARK H PARENT 23 83 25 85 14 88 16 90 7 92 7 93
ROOT
ATOM      1  C   UNL     1     -18.034  16.674  -2.111  1.00  0.00    +0.179 C 
ATOM      2  C   UNL     1     -17.307  15.959  -3.269  1.00  0.00    +0.183 C 
ATOM      3  C   UNL     1     -17.605  14.446  -3.269  1.00  0.00    +0.175 C 
ATOM      4  C   UNL     1     -19.130  14.210  -3.229  1.00  0.00    +0.140 C 
ATOM      5  C   UNL     1     -19.724  14.963  -2.005  1.00  0.00    +0.273 C 
ATOM      6  O   UNL     1     -19.437  16.353  -2.090  1.00  0.00    -0.342 OA
ENDROOT
BRANCH   1   7
ATOM      7  C   UNL     1     -17.364  16.436  -0.736  1.00  0.00    +0.198 C 
BRANCH   7   8
ATOM      8  O   UNL     1     -18.331  16.060   0.249  1.00  0.00    -0.348 OA
BRANCH   8   9
ATOM      9  C   UNL     1     -17.730  15.582   1.462  1.00  0.00    +0.270 C 
ATOM     10  C   UNL     1     -17.322  16.159   3.773  1.00  0.00    +0.178 C 
ATOM     11  C   UNL     1     -16.808  14.711   3.814  1.00  0.00    +0.176 C 
ATOM     12  O   UNL     1     -17.828  16.562   2.493  1.00  0.00    -0.342 OA
ATOM     13  C   UNL     1     -17.807  13.723   3.193  1.00  0.00    +0.167 C 
ATOM     14  C   UNL     1     -18.432  14.256   1.884  1.00  0.00    +0.139 C 
BRANCH  10  15
ATOM     15  C   UNL     1     -18.387  16.491   4.832  1.00  0.00    +0.191 C 
BRANCH  15  16
ATOM     16  O   UNL     1     -19.689  16.584   4.261  1.00  0.00    -0.394 OA
ATOM     17  H   UNL     1     -20.071  15.688   4.271  1.00  0.00    +0.210 HD
ENDBRANCH  15  16
ENDBRANCH  10  15
BRANCH  11  18
ATOM     18  O   UNL     1     -16.446  14.277   5.131  1.00  0.00    -0.388 OA
ATOM     19  H   UNL     1     -17.169  14.536   5.731  1.00  0.00    +0.211 HD
ENDBRANCH  11  18
BRANCH  13  20
ATOM     20  O   UNL     1     -17.102  12.492   2.931  1.00  0.00    -0.388 OA
ATOM     21  H   UNL     1     -17.601  12.066   2.208  1.00  0.00    +0.211 HD
ENDBRANCH  13  20
BRANCH  14  22
ATOM     22  N   UNL     1     -19.903  14.457   2.061  1.00  0.00    -0.321 NA
ATOM     23  H   UNL     1     -20.345  13.980   1.259  1.00  0.00    +0.119 HD
ATOM     24  H   UNL     1     -20.183  13.861   2.861  1.00  0.00    +0.119 HD
ENDBRANCH  14  22
ENDBRANCH   8   9
ENDBRANCH   7   8
ENDBRANCH   1   7
BRANCH   2  25
ATOM     25  O   UNL     1     -15.885  16.150  -3.147  1.00  0.00    -0.342 OA
BRANCH  25  26
ATOM     26  C   UNL     1     -15.441  17.355  -3.784  1.00  0.00    +0.270 C 
ATOM     27  C   UNL     1     -15.995  17.363  -5.244  1.00  0.00    +0.139 C 
ATOM     28  O   UNL     1     -14.017  17.422  -3.786  1.00  0.00    -0.342 OA
ATOM     29  C   UNL     1     -15.497  18.624  -6.004  1.00  0.00    +0.167 C 
ATOM     30  C   UNL     1     -13.460  18.541  -4.490  1.00  0.00    +0.178 C 
ATOM     31  C   UNL     1     -14.510  19.446  -5.167  1.00  0.00    +0.176 C 
BRANCH  27  32
ATOM     32  N   UNL     1     -15.702  16.087  -5.948  1.00  0.00    -0.321 NA
ATOM     33  H   UNL     1     -16.539  15.498  -5.872  1.00  0.00    +0.119 HD
ATOM     34  H   UNL     1     -15.646  16.308  -6.945  1.00  0.00    +0.119 HD
ENDBRANCH  27  32
BRANCH  29  35
ATOM     35  O   UNL     1     -14.862  18.319  -7.263  1.00  0.00    -0.388 OA
ATOM     36  H   UNL     1     -13.913  18.209  -7.041  1.00  0.00    +0.211 HD
ENDBRANCH  29  35
BRANCH  30  37
ATOM     37  C   UNL     1     -12.342  18.024  -5.420  1.00  0.00    +0.191 C 
BRANCH  37  38
ATOM     38  O   UNL     1     -12.542  16.690  -5.881  1.00  0.00    -0.394 OA
ATOM     39  H   UNL     1     -13.498  16.484  -5.770  1.00  0.00    +0.210 HD
ENDBRANCH  37  38
ENDBRANCH  30  37
BRANCH  31  40
ATOM     40  O   UNL     1     -13.922  20.461  -5.986  1.00  0.00    -0.388 OA
ATOM     41  H   UNL     1     -14.484  20.569  -6.776  1.00  0.00    +0.211 HD
ENDBRANCH  31  40
ENDBRANCH  25  26
ENDBRANCH   2  25
BRANCH   3  42
ATOM     42  O   UNL     1     -16.964  13.867  -4.426  1.00  0.00    -0.343 OA
BRANCH  42  43
ATOM     43  C   UNL     1     -16.064  12.794  -4.130  1.00  0.00    +0.270 C 
ATOM     44  C   UNL     1     -14.710  13.132  -4.809  1.00  0.00    +0.139 C 
ATOM     45  O   UNL     1     -16.632  11.580  -4.630  1.00  0.00    -0.342 OA
ATOM     46  C   UNL     1     -13.759  11.926  -4.770  1.00  0.00    +0.167 C 
ATOM     47  C   UNL     1     -15.780  10.432  -4.547  1.00  0.00    +0.178 C 
ATOM     48  C   UNL     1     -14.462  10.677  -5.304  1.00  0.00    +0.176 C 
BRANCH  44  49
ATOM     49  N   UNL     1     -14.059  14.308  -4.181  1.00  0.00    -0.321 NA
ATOM     50  H   UNL     1     -13.141  14.019  -3.841  1.00  0.00    +0.119 HD
ATOM     51  H   UNL     1     -14.615  14.554  -3.356  1.00  0.00    +0.119 HD
ENDBRANCH  44  49
BRANCH  46  52
ATOM     52  O   UNL     1     -12.599  12.197  -5.578  1.00  0.00    -0.388 OA
ATOM     53  H   UNL     1     -12.385  13.136  -5.407  1.00  0.00    +0.211 HD
ENDBRANCH  46  52
BRANCH  47  54
ATOM     54  C   UNL     1     -15.612   9.952  -3.094  1.00  0.00    +0.191 C 
BRANCH  54  55
ATOM     55  O   UNL     1     -15.223   8.582  -3.060  1.00  0.00    -0.394 OA
ATOM     56  H   UNL     1     -14.970   8.335  -3.971  1.00  0.00    +0.210 HD
ENDBRANCH  54  55
ENDBRANCH  47  54
BRANCH  48  57
ATOM     57  O   UNL     1     -13.546   9.576  -5.263  1.00  0.00    -0.388 OA
ATOM     58  H   UNL     1     -14.008   8.819  -4.838  1.00  0.00    +0.211 HD
ENDBRANCH  48  57
ENDBRANCH  42  43
ENDBRANCH   3  42
BRANCH   5  59
ATOM     59  O   UNL     1     -21.137  14.746  -2.003  1.00  0.00    -0.320 OA
BRANCH  59  60
ATOM     60  C   UNL     1     -21.574  13.761  -1.065  1.00  0.00    +0.273 C 
ATOM     61  C   UNL     1     -22.774  12.936  -1.616  1.00  0.00    +0.140 C 
ATOM     62  O   UNL     1     -20.435  12.914  -0.852  1.00  0.00    -0.342 OA
ATOM     63  C   UNL     1     -23.060  11.753  -0.668  1.00  0.00    +0.174 C 
ATOM     64  C   UNL     1     -20.684  11.864   0.097  1.00  0.00    +0.178 C 
ATOM     65  C   UNL     1     -21.790  10.937  -0.406  1.00  0.00    +0.176 C 
BRANCH  61  66
ATOM     66  N   UNL     1     -24.008  13.730  -1.782  1.00  0.00    -0.321 NA
ATOM     67  H   UNL     1     -23.762  14.728  -1.755  1.00  0.00    +0.119 HD
ATOM     68  H   UNL     1     -24.607  13.576  -0.958  1.00  0.00    +0.119 HD
ENDBRANCH  61  66
BRANCH  63  69
ATOM     69  O   UNL     1     -24.022  10.856  -1.260  1.00  0.00    -0.343 OA
BRANCH  69  70
ATOM     70  C   UNL     1     -25.253  10.817  -0.534  1.00  0.00    +0.270 C 
ATOM     71  C   UNL     1     -26.442  10.835  -1.541  1.00  0.00    +0.139 C 
ATOM     72  O   UNL     1     -25.237   9.666   0.323  1.00  0.00    -0.342 OA
ATOM     73  C   UNL     1     -27.617  10.099  -0.889  1.00  0.00    +0.167 C 
ATOM     74  C   UNL     1     -25.732   8.480  -0.320  1.00  0.00    +0.178 C 
ATOM     75  C   UNL     1     -27.243   8.631  -0.626  1.00  0.00    +0.176 C 
BRANCH  71  76
ATOM     76  N   UNL     1     -26.824  12.202  -1.982  1.00  0.00    -0.321 NA
ATOM     77  H   UNL     1     -26.495  12.836  -1.245  1.00  0.00    +0.119 HD
ATOM     78  H   UNL     1     -26.236  12.450  -2.793  1.00  0.00    +0.119 HD
ENDBRANCH  71  76
BRANCH  73  79
ATOM     79  O   UNL     1     -28.782  10.150  -1.731  1.00  0.00    -0.388 OA
ATOM     80  H   UNL     1     -28.696   9.379  -2.325  1.00  0.00    +0.211 HD
ENDBRANCH  73  79
BRANCH  74  81
ATOM     81  C   UNL     1     -25.385   7.273   0.563  1.00  0.00    +0.191 C 
BRANCH  81  82
ATOM     82  O   UNL     1     -26.048   6.093   0.102  1.00  0.00    -0.394 OA
ATOM     83  H   UNL     1     -26.823   5.963   0.678  1.00  0.00    +0.210 HD
ENDBRANCH  81  82
ENDBRANCH  74  81
BRANCH  75  84
ATOM     84  O   UNL     1     -28.125   8.158   0.401  1.00  0.00    -0.388 OA
ATOM     85  H   UNL     1     -28.746   8.892   0.608  1.00  0.00    +0.211 HD
ENDBRANCH  75  84
ENDBRANCH  69  70
ENDBRANCH  63  69
BRANCH  64  86
ATOM     86  C   UNL     1     -19.366  11.110   0.294  1.00  0.00    +0.191 C 
BRANCH  86  87
ATOM     87  O   UNL     1     -19.361   9.940  -0.531  1.00  0.00    -0.394 OA
ATOM     88  H   UNL     1     -18.418   9.687  -0.596  1.00  0.00    +0.210 HD
ENDBRANCH  86  87
ENDBRANCH  64  86
BRANCH  65  89
ATOM     89  O   UNL     1     -22.071   9.917   0.560  1.00  0.00    -0.388 OA
ATOM     90  H   UNL     1     -22.379   9.143   0.045  1.00  0.00    +0.211 HD
ENDBRANCH  65  89
ENDBRANCH  59  60
ENDBRANCH   5  59
BRANCH   4  91
ATOM     91  N   UNL     1     -19.763  14.612  -4.510  1.00  0.00    -0.321 NA
ATOM     92  H   UNL     1     -19.356  15.507  -4.791  1.00  0.00    +0.119 HD
ATOM     93  H   UNL     1     -20.758  14.771  -4.330  1.00  0.00    +0.119 HD
ENDBRANCH   4  91
TORSDOF 36
ENDMDL
MODEL 9
REMARK VINA RESULT:    -5.688     31.575     36.950
REMARK INTER + INTRA:         -21.435
REMARK INTER:                 -14.303
REMARK INTRA:                  -7.132
REMARK UNBOUND:                -7.101
REMARK SMILES N[C@@H]1[C@@H](O[C@@H]2[C@H](N)[C@H](O[C@@H]3O[C@H](CO)[C@@H](O)[C@H](O[C@@H]4O[C@@H](CO)[C@@H](O)[C@H](O)[C@H]4N)[C@H]3N)O[C@@H](CO[C@H]3O[C@@H](CO)[C@@H](O)[C@H](O)[C@H]3N)[C@H]2O[C@H]2O[C@@H](CO)[C@@H](O)[C@@H](O)[C@H]2N)O[C@H](CO)[C@H](O)[C@H]1O
REMARK SMILES IDX 33 1 47 2 5 3 6 4 8 5 32 6 34 7 35 8 36 9 38 10 41 11 37 12
REMARK SMILES IDX 43 13 45 14 39 15 40 16 42 18 44 20 46 22 48 25 49 26 58 27
REMARK SMILES IDX 50 28 56 29 51 30 54 31 59 32 57 35 52 37 53 38 55 40 4 42
REMARK SMILES IDX 3 43 2 44 60 45 66 46 61 47 64 48 1 49 67 52 62 54 63 55
REMARK SMILES IDX 65 57 9 59 10 60 30 61 11 62 17 63 12 64 15 65 31 66 18 69
REMARK SMILES IDX 19 70 28 71 20 72 26 73 21 74 24 75 29 76 27 79 22 81 23 82
REMARK SMILES IDX 25 84 13 86 14 87 16 89 7 91
REMARK H PARENT 40 17 42 19 44 21 46 23 46 24 59 33 59 34 57 36 53 39 55 41
REMARK H PARENT 1 50 1 51 67 53 63 56 65 58 31 67 31 68 29 77 29 78 27 80
REMARK H PARENT 23 83 25 85 14 88 16 90 7 92 7 93
ROOT
ATOM      1  C   UNL     1      -0.127 -12.211 -17.757  1.00  0.00    +0.179 C 
ATOM      2  C   UNL     1      -0.844 -13.460 -17.205  1.00  0.00    +0.183 C 
ATOM      3  C   UNL     1      -0.425 -14.731 -17.972  1.00  0.00    +0.175 C 
ATOM      4  C   UNL     1       1.115 -14.841 -18.008  1.00  0.00    +0.140 C 
ATOM      5  C   UNL     1       1.698 -13.530 -18.607  1.00  0.00    +0.273 C 
ATOM      6  O   UNL     1       1.297 -12.408 -17.832  1.00  0.00    -0.342 OA
ENDROOT
BRANCH   1   7
ATOM      7  C   UNL     1      -0.716 -11.719 -19.102  1.00  0.00    +0.198 C 
BRANCH   7   8
ATOM      8  O   UNL     1      -0.946 -10.306 -19.076  1.00  0.00    -0.348 OA
BRANCH   8   9
ATOM      9  C   UNL     1      -2.206  -9.939 -19.658  1.00  0.00    +0.270 C 
ATOM     10  C   UNL     1      -4.336 -10.831 -20.373  1.00  0.00    +0.178 C 
ATOM     11  C   UNL     1      -4.648  -9.337 -20.559  1.00  0.00    +0.176 C 
ATOM     12  O   UNL     1      -3.021 -11.091 -19.863  1.00  0.00    -0.342 OA
ATOM     13  C   UNL     1      -4.278  -8.508 -19.320  1.00  0.00    +0.167 C 
ATOM     14  C   UNL     1      -2.914  -8.915 -18.719  1.00  0.00    +0.139 C 
BRANCH  10  15
ATOM     15  C   UNL     1      -5.346 -11.592 -19.499  1.00  0.00    +0.191 C 
BRANCH  15  16
ATOM     16  O   UNL     1      -4.733 -12.677 -18.807  1.00  0.00    -0.394 OA
ATOM     17  H   UNL     1      -5.407 -13.376 -18.718  1.00  0.00    +0.210 HD
ENDBRANCH  15  16
ENDBRANCH  10  15
BRANCH  11  18
ATOM     18  O   UNL     1      -6.011  -9.086 -20.926  1.00  0.00    -0.388 OA
ATOM     19  H   UNL     1      -6.145  -8.121 -20.903  1.00  0.00    +0.211 HD
ENDBRANCH  11  18
BRANCH  13  20
ATOM     20  O   UNL     1      -4.244  -7.121 -19.714  1.00  0.00    -0.388 OA
ATOM     21  H   UNL     1      -3.970  -6.638 -18.911  1.00  0.00    +0.211 HD
ENDBRANCH  13  20
BRANCH  14  22
ATOM     22  N   UNL     1      -3.103  -9.480 -17.349  1.00  0.00    -0.321 NA
ATOM     23  H   UNL     1      -3.021 -10.504 -17.458  1.00  0.00    +0.119 HD
ATOM     24  H   UNL     1      -2.249  -9.240 -16.815  1.00  0.00    +0.119 HD
ENDBRANCH  14  22
ENDBRANCH   8   9
ENDBRANCH   7   8
ENDBRANCH   1   7
BRANCH   2  25
ATOM     25  O   UNL     1      -2.269 -13.298 -17.321  1.00  0.00    -0.342 OA
BRANCH  25  26
ATOM     26  C   UNL     1      -2.899 -13.092 -16.050  1.00  0.00    +0.270 C 
ATOM     27  C   UNL     1      -3.629 -14.413 -15.652  1.00  0.00    +0.139 C 
ATOM     28  O   UNL     1      -3.823 -12.009 -16.122  1.00  0.00    -0.342 OA
ATOM     29  C   UNL     1      -4.380 -14.230 -14.303  1.00  0.00    +0.167 C 
ATOM     30  C   UNL     1      -4.587 -11.778 -14.930  1.00  0.00    +0.178 C 
ATOM     31  C   UNL     1      -4.304 -12.785 -13.796  1.00  0.00    +0.176 C 
BRANCH  27  32
ATOM     32  N   UNL     1      -4.493 -14.916 -16.752  1.00  0.00    -0.321 NA
ATOM     33  H   UNL     1      -4.614 -15.924 -16.607  1.00  0.00    +0.119 HD
ATOM     34  H   UNL     1      -5.427 -14.531 -16.591  1.00  0.00    +0.119 HD
ENDBRANCH  27  32
BRANCH  29  35
ATOM     35  O   UNL     1      -5.771 -14.605 -14.367  1.00  0.00    -0.388 OA
ATOM     36  H   UNL     1      -5.771 -15.478 -14.813  1.00  0.00    +0.211 HD
ENDBRANCH  29  35
BRANCH  30  37
ATOM     37  C   UNL     1      -6.072 -11.632 -15.322  1.00  0.00    +0.191 C 
BRANCH  37  38
ATOM     38  O   UNL     1      -6.488 -12.517 -16.360  1.00  0.00    -0.394 OA
ATOM     39  H   UNL     1      -7.061 -13.202 -15.946  1.00  0.00    +0.210 HD
ENDBRANCH  37  38
ENDBRANCH  30  37
BRANCH  31  40
ATOM     40  O   UNL     1      -5.186 -12.626 -12.680  1.00  0.00    -0.388 OA
ATOM     41  H   UNL     1      -5.124 -11.699 -12.381  1.00  0.00    +0.211 HD
ENDBRANCH  31  40
ENDBRANCH  25  26
ENDBRANCH   2  25
BRANCH   3  42
ATOM     42  O   UNL     1      -1.067 -15.861 -17.342  1.00  0.00    -0.343 OA
BRANCH  42  43
ATOM     43  C   UNL     1      -1.029 -17.068 -18.112  1.00  0.00    +0.270 C 
ATOM     44  C   UNL     1      -2.460 -17.667 -18.094  1.00  0.00    +0.139 C 
ATOM     45  O   UNL     1      -0.067 -17.947 -17.520  1.00  0.00    -0.342 OA
ATOM     46  C   UNL     1      -2.467 -19.090 -18.670  1.00  0.00    +0.167 C 
ATOM     47  C   UNL     1      -0.020 -19.262 -18.085  1.00  0.00    +0.178 C 
ATOM     48  C   UNL     1      -1.396 -19.945 -17.991  1.00  0.00    +0.176 C 
BRANCH  44  49
ATOM     49  N   UNL     1      -3.421 -16.817 -18.839  1.00  0.00    -0.321 NA
ATOM     50  H   UNL     1      -4.355 -17.206 -18.712  1.00  0.00    +0.119 HD
ATOM     51  H   UNL     1      -3.195 -16.910 -19.834  1.00  0.00    +0.119 HD
ENDBRANCH  44  49
BRANCH  46  52
ATOM     52  O   UNL     1      -3.757 -19.694 -18.457  1.00  0.00    -0.388 OA
ATOM     53  H   UNL     1      -4.353 -19.247 -19.091  1.00  0.00    +0.211 HD
ENDBRANCH  46  52
BRANCH  47  54
ATOM     54  C   UNL     1       0.604 -19.254 -19.493  1.00  0.00    +0.191 C 
BRANCH  54  55
ATOM     55  O   UNL     1       1.848 -18.561 -19.487  1.00  0.00    -0.394 OA
ATOM     56  H   UNL     1       2.552 -19.237 -19.545  1.00  0.00    +0.210 HD
ENDBRANCH  54  55
ENDBRANCH  47  54
BRANCH  48  57
ATOM     57  O   UNL     1      -1.436 -21.266 -18.544  1.00  0.00    -0.388 OA
ATOM     58  H   UNL     1      -1.725 -21.879 -17.831  1.00  0.00    +0.211 HD
ENDBRANCH  48  57
ENDBRANCH  42  43
ENDBRANCH   3  42
BRANCH   5  59
ATOM     59  O   UNL     1       3.123 -13.648 -18.611  1.00  0.00    -0.320 OA
BRANCH  59  60
ATOM     60  C   UNL     1       3.791 -12.675 -17.806  1.00  0.00    +0.273 C 
ATOM     61  C   UNL     1       4.942 -13.311 -16.974  1.00  0.00    +0.140 C 
ATOM     62  O   UNL     1       4.312 -11.713 -18.735  1.00  0.00    -0.342 OA
ATOM     63  C   UNL     1       5.764 -12.193 -16.299  1.00  0.00    +0.174 C 
ATOM     64  C   UNL     1       5.004 -10.629 -18.094  1.00  0.00    +0.178 C 
ATOM     65  C   UNL     1       6.219 -11.148 -17.325  1.00  0.00    +0.176 C 
BRANCH  61  66
ATOM     66  N   UNL     1       4.470 -14.253 -15.939  1.00  0.00    -0.321 NA
ATOM     67  H   UNL     1       4.606 -15.213 -16.282  1.00  0.00    +0.119 HD
ATOM     68  H   UNL     1       3.450 -14.143 -15.839  1.00  0.00    +0.119 HD
ENDBRANCH  61  66
BRANCH  63  69
ATOM     69  O   UNL     1       6.957 -12.738 -15.698  1.00  0.00    -0.343 OA
BRANCH  69  70
ATOM     70  C   UNL     1       6.989 -12.553 -14.281  1.00  0.00    +0.270 C 
ATOM     71  C   UNL     1       7.498 -13.861 -13.605  1.00  0.00    +0.139 C 
ATOM     72  O   UNL     1       7.795 -11.400 -13.994  1.00  0.00    -0.342 OA
ATOM     73  C   UNL     1       8.193 -13.470 -12.296  1.00  0.00    +0.167 C 
ATOM     74  C   UNL     1       9.190 -11.712 -13.852  1.00  0.00    +0.178 C 
ATOM     75  C   UNL     1       9.416 -12.584 -12.591  1.00  0.00    +0.176 C 
BRANCH  71  76
ATOM     76  N   UNL     1       6.427 -14.867 -13.380  1.00  0.00    -0.321 NA
ATOM     77  H   UNL     1       6.393 -15.017 -12.365  1.00  0.00    +0.119 HD
ATOM     78  H   UNL     1       5.520 -14.418 -13.587  1.00  0.00    +0.119 HD
ENDBRANCH  71  76
BRANCH  73  79
ATOM     79  O   UNL     1       8.616 -14.639 -11.574  1.00  0.00    -0.388 OA
ATOM     80  H   UNL     1       9.445 -14.917 -12.010  1.00  0.00    +0.211 HD
ENDBRANCH  73  79
BRANCH  74  81
ATOM     81  C   UNL     1       9.981 -10.397 -13.858  1.00  0.00    +0.191 C 
BRANCH  81  82
ATOM     82  O   UNL     1      11.313 -10.596 -13.375  1.00  0.00    -0.394 OA
ATOM     83  H   UNL     1      11.414 -11.553 -13.218  1.00  0.00    +0.210 HD
ENDBRANCH  81  82
ENDBRANCH  74  81
BRANCH  75  84
ATOM     84  O   UNL     1       9.697 -11.857 -11.387  1.00  0.00    -0.388 OA
ATOM     85  H   UNL     1       8.911 -11.950 -10.804  1.00  0.00    +0.211 HD
ENDBRANCH  75  84
ENDBRANCH  69  70
ENDBRANCH  63  69
BRANCH  64  86
ATOM     86  C   UNL     1       5.414  -9.642 -19.191  1.00  0.00    +0.191 C 
BRANCH  86  87
ATOM     87  O   UNL     1       5.400  -8.312 -18.661  1.00  0.00    -0.394 OA
ATOM     88  H   UNL     1       5.470  -7.733 -19.446  1.00  0.00    +0.210 HD
ENDBRANCH  86  87
ENDBRANCH  64  86
BRANCH  65  89
ATOM     89  O   UNL     1       6.883 -10.075 -16.647  1.00  0.00    -0.388 OA
ATOM     90  H   UNL     1       6.364  -9.916 -15.832  1.00  0.00    +0.211 HD
ENDBRANCH  65  89
ENDBRANCH  59  60
ENDBRANCH   5  59
BRANCH   4  91
ATOM     91  N   UNL     1       1.657 -15.145 -16.661  1.00  0.00    -0.321 NA
ATOM     92  H   UNL     1       2.605 -14.763 -16.613  1.00  0.00    +0.119 HD
ATOM     93  H   UNL     1       1.733 -16.162 -16.578  1.00  0.00    +0.119 HD
ENDBRANCH   4  91
TORSDOF 36
ENDMDL
