MODEL 1
REMARK VINA RESULT:    -7.044      0.000      0.000
REMARK INTER + INTRA:         -11.264
REMARK INTER:                 -10.338
REMARK INTRA:                  -0.926
REMARK UNBOUND:                -0.926
REMARK SMILES O=S(=O)(O)OC[C@@H]1O[C@H](O[C@H]2[C@@H]3OC[C@H]2O[C@@H](O)[C@H]3O)[C@@H](O)[C@H](O)[C@@H]1O
REMARK SMILES IDX 9 1 21 2 23 3 25 4 7 5 8 6 10 7 11 8 14 9 15 10 13 11 16 12
REMARK SMILES IDX 12 13 17 14 19 15 18 16 20 18 22 20 24 22 6 24 5 25 2 26
REMARK SMILES IDX 1 27 3 28 4 29 26 31
REMARK H PARENT 18 17 20 19 22 21 24 23 4 30 26 32
ROOT
ATOM      1  C   UNL     1      -6.427  -6.975   9.467  1.00  0.00    +0.282 C 
ATOM      2  C   UNL     1      -7.141  -6.507   8.184  1.00  0.00    +0.202 C 
ATOM      3  C   UNL     1      -8.497  -5.945   8.574  1.00  0.00    +0.179 C 
ATOM      4  C   UNL     1      -8.297  -4.697   9.438  1.00  0.00    +0.177 C 
ATOM      5  C   UNL     1      -7.086  -4.813  10.395  1.00  0.00    +0.180 C 
ATOM      6  O   UNL     1      -6.696  -6.181  10.620  1.00  0.00    -0.341 OA
ENDROOT
BRANCH   1   7
ATOM      7  O   UNL     1      -5.031  -7.088   9.174  1.00  0.00    -0.341 OA
BRANCH   7   8
ATOM      8  C   UNL     1      -4.509  -8.383   9.450  1.00  0.00    +0.184 C 
ATOM      9  C   UNL     1      -2.967  -9.833  10.458  1.00  0.00    +0.195 C 
ATOM     10  C   UNL     1      -3.601  -8.457  10.668  1.00  0.00    +0.179 C 
ATOM     11  O   UNL     1      -2.868 -10.008   9.021  1.00  0.00    -0.370 OA
ATOM     12  O   UNL     1      -2.646  -7.381  10.649  1.00  0.00    -0.342 OA
ATOM     13  C   UNL     1      -3.484  -8.841   8.418  1.00  0.00    +0.184 C 
ATOM     14  C   UNL     1      -1.771  -7.334   9.527  1.00  0.00    +0.279 C 
ATOM     15  C   UNL     1      -2.434  -7.744   8.193  1.00  0.00    +0.202 C 
BRANCH  14  16
ATOM     16  O   UNL     1      -0.641  -8.160   9.794  1.00  0.00    -0.366 OA
ATOM     17  H   UNL     1      -0.104  -8.108   8.983  1.00  0.00    +0.213 HD
ENDBRANCH  14  16
BRANCH  15  18
ATOM     18  O   UNL     1      -1.449  -8.185   7.249  1.00  0.00    -0.385 OA
ATOM     19  H   UNL     1      -1.945  -8.789   6.655  1.00  0.00    +0.211 HD
ENDBRANCH  15  18
ENDBRANCH   7   8
ENDBRANCH   1   7
BRANCH   2  20
ATOM     20  O   UNL     1      -7.328  -7.594   7.261  1.00  0.00    -0.385 OA
ATOM     21  H   UNL     1      -6.472  -8.063   7.219  1.00  0.00    +0.211 HD
ENDBRANCH   2  20
BRANCH   3  22
ATOM     22  O   UNL     1      -9.251  -5.593   7.402  1.00  0.00    -0.387 OA
ATOM     23  H   UNL     1      -8.645  -5.771   6.652  1.00  0.00    +0.211 HD
ENDBRANCH   3  22
BRANCH   5  24
ATOM     24  C   UNL     1      -5.882  -3.925  10.033  1.00  0.00    +0.220 C 
BRANCH  24  25
ATOM     25  O   UNL     1      -4.974  -3.924  11.132  1.00  0.00    -0.245 OA
BRANCH  25  26
ATOM     26  S   UNL     1      -5.126  -2.747  12.239  1.00  0.00    +0.397 S 
ATOM     27  O   UNL     1      -5.965  -1.689  11.723  1.00  0.00    -0.169 OA
ATOM     28  O   UNL     1      -3.824  -2.488  12.809  1.00  0.00    -0.169 OA
BRANCH  26  29
ATOM     29  O   UNL     1      -5.944  -3.492  13.408  1.00  0.00    -0.264 OA
ATOM     30  H   UNL     1      -5.480  -3.300  14.248  1.00  0.00    +0.236 HD
ENDBRANCH  26  29
ENDBRANCH  25  26
ENDBRANCH  24  25
ENDBRANCH   5  24
BRANCH   4  31
ATOM     31  O   UNL     1      -8.185  -3.550   8.588  1.00  0.00    -0.387 OA
ATOM     32  H   UNL     1      -7.795  -2.851   9.159  1.00  0.00    +0.211 HD
ENDBRANCH   4  31
TORSDOF 11
ENDMDL
MODEL 2
REMARK VINA RESULT:    -7.033      2.313      6.667
REMARK INTER + INTRA:         -11.248
REMARK INTER:                  -9.935
REMARK INTRA:                  -1.313
REMARK UNBOUND:                -0.926
REMARK SMILES O=S(=O)(O)OC[C@@H]1O[C@H](O[C@H]2[C@@H]3OC[C@H]2O[C@@H](O)[C@H]3O)[C@@H](O)[C@H](O)[C@@H]1O
REMARK SMILES IDX 9 1 21 2 23 3 25 4 7 5 8 6 10 7 11 8 14 9 15 10 13 11 16 12
REMARK SMILES IDX 12 13 17 14 19 15 18 16 20 18 22 20 24 22 6 24 5 25 2 26
REMARK SMILES IDX 1 27 3 28 4 29 26 31
REMARK H PARENT 18 17 20 19 22 21 24 23 4 30 26 32
ROOT
ATOM      1  C   UNL     1      -6.353  -7.548  10.170  1.00  0.00    +0.282 C 
ATOM      2  C   UNL     1      -5.601  -8.157  11.370  1.00  0.00    +0.202 C 
ATOM      3  C   UNL     1      -5.391  -9.636  11.097  1.00  0.00    +0.179 C 
ATOM      4  C   UNL     1      -4.473  -9.801   9.883  1.00  0.00    +0.177 C 
ATOM      5  C   UNL     1      -4.721  -8.733   8.791  1.00  0.00    +0.180 C 
ATOM      6  O   UNL     1      -6.019  -8.121   8.907  1.00  0.00    -0.341 OA
ENDROOT
BRANCH   1   7
ATOM      7  O   UNL     1      -6.168  -6.131  10.211  1.00  0.00    -0.341 OA
BRANCH   7   8
ATOM      8  C   UNL     1      -7.364  -5.424  10.525  1.00  0.00    +0.184 C 
ATOM      9  C   UNL     1      -8.730  -3.520  10.470  1.00  0.00    +0.195 C 
ATOM     10  C   UNL     1      -7.626  -4.201   9.659  1.00  0.00    +0.179 C 
ATOM     11  O   UNL     1      -8.444  -3.821  11.860  1.00  0.00    -0.370 OA
ATOM     12  O   UNL     1      -6.434  -3.405   9.539  1.00  0.00    -0.342 OA
ATOM     13  C   UNL     1      -7.288  -4.699  11.864  1.00  0.00    +0.184 C 
ATOM     14  C   UNL     1      -5.888  -2.900  10.752  1.00  0.00    +0.279 C 
ATOM     15  C   UNL     1      -5.997  -3.873  11.947  1.00  0.00    +0.202 C 
BRANCH  14  16
ATOM     16  O   UNL     1      -6.527  -1.663  11.060  1.00  0.00    -0.366 OA
ATOM     17  H   UNL     1      -6.436  -1.575  12.026  1.00  0.00    +0.213 HD
ENDBRANCH  14  16
BRANCH  15  18
ATOM     18  O   UNL     1      -5.940  -3.163  13.191  1.00  0.00    -0.385 OA
ATOM     19  H   UNL     1      -5.548  -2.296  12.950  1.00  0.00    +0.211 HD
ENDBRANCH  15  18
ENDBRANCH   7   8
ENDBRANCH   1   7
BRANCH   2  20
ATOM     20  O   UNL     1      -6.347  -8.002  12.590  1.00  0.00    -0.385 OA
ATOM     21  H   UNL     1      -6.558  -7.050  12.659  1.00  0.00    +0.211 HD
ENDBRANCH   2  20
BRANCH   3  22
ATOM     22  O   UNL     1      -4.789 -10.275  12.236  1.00  0.00    -0.387 OA
ATOM     23  H   UNL     1      -4.336 -11.064  11.869  1.00  0.00    +0.211 HD
ENDBRANCH   3  22
BRANCH   5  24
ATOM     24  C   UNL     1      -3.604  -7.685   8.638  1.00  0.00    +0.220 C 
BRANCH  24  25
ATOM     25  O   UNL     1      -2.665  -8.160   7.677  1.00  0.00    -0.245 OA
BRANCH  25  26
ATOM     26  S   UNL     1      -1.111  -8.279   8.131  1.00  0.00    +0.397 S 
ATOM     27  O   UNL     1      -0.935  -7.702   9.444  1.00  0.00    -0.169 OA
ATOM     28  O   UNL     1      -0.280  -7.906   7.008  1.00  0.00    -0.169 OA
BRANCH  26  29
ATOM     29  O   UNL     1      -0.924  -9.872   8.267  1.00  0.00    -0.264 OA
ATOM     30  H   UNL     1      -1.267 -10.271   7.442  1.00  0.00    +0.236 HD
ENDBRANCH  26  29
ENDBRANCH  25  26
ENDBRANCH  24  25
ENDBRANCH   5  24
BRANCH   4  31
ATOM     31  O   UNL     1      -3.110  -9.796  10.321  1.00  0.00    -0.387 OA
ATOM     32  H   UNL     1      -3.158  -9.923  11.295  1.00  0.00    +0.211 HD
ENDBRANCH   4  31
TORSDOF 11
ENDMDL
MODEL 3
REMARK VINA RESULT:    -6.702     26.803     29.107
REMARK INTER + INTRA:         -10.762
REMARK INTER:                  -9.184
REMARK INTRA:                  -1.578
REMARK UNBOUND:                -0.926
REMARK SMILES O=S(=O)(O)OC[C@@H]1O[C@H](O[C@H]2[C@@H]3OC[C@H]2O[C@@H](O)[C@H]3O)[C@@H](O)[C@H](O)[C@@H]1O
REMARK SMILES IDX 9 1 21 2 23 3 25 4 7 5 8 6 10 7 11 8 14 9 15 10 13 11 16 12
REMARK SMILES IDX 12 13 17 14 19 15 18 16 20 18 22 20 24 22 6 24 5 25 2 26
REMARK SMILES IDX 1 27 3 28 4 29 26 31
REMARK H PARENT 18 17 20 19 22 21 24 23 4 30 26 32
ROOT
ATOM      1  C   UNL     1      -6.294 -10.768 -17.545  1.00  0.00    +0.282 C 
ATOM      2  C   UNL     1      -5.826 -11.040 -16.102  1.00  0.00    +0.202 C 
ATOM      3  C   UNL     1      -7.048 -11.374 -15.263  1.00  0.00    +0.179 C 
ATOM      4  C   UNL     1      -7.669 -12.679 -15.770  1.00  0.00    +0.177 C 
ATOM      5  C   UNL     1      -7.594 -12.823 -17.309  1.00  0.00    +0.180 C 
ATOM      6  O   UNL     1      -7.403 -11.558 -17.970  1.00  0.00    -0.341 OA
ENDROOT
BRANCH   1   7
ATOM      7  O   UNL     1      -5.156 -10.888 -18.404  1.00  0.00    -0.341 OA
BRANCH   7   8
ATOM      8  C   UNL     1      -4.971  -9.752 -19.241  1.00  0.00    +0.184 C 
ATOM      9  C   UNL     1      -3.953  -8.631 -21.031  1.00  0.00    +0.195 C 
ATOM     10  C   UNL     1      -4.308 -10.048 -20.578  1.00  0.00    +0.179 C 
ATOM     11  O   UNL     1      -3.663  -7.888 -19.819  1.00  0.00    -0.370 OA
ATOM     12  O   UNL     1      -3.157 -10.891 -20.391  1.00  0.00    -0.342 OA
ATOM     13  C   UNL     1      -3.913  -8.791 -18.711  1.00  0.00    +0.184 C 
ATOM     14  C   UNL     1      -2.123 -10.372 -19.562  1.00  0.00    +0.279 C 
ATOM     15  C   UNL     1      -2.633  -9.558 -18.353  1.00  0.00    +0.202 C 
BRANCH  14  16
ATOM     16  O   UNL     1      -1.250  -9.579 -20.363  1.00  0.00    -0.366 OA
ATOM     17  H   UNL     1      -0.897 -10.197 -21.027  1.00  0.00    +0.213 HD
ENDBRANCH  14  16
BRANCH  15  18
ATOM     18  O   UNL     1      -1.624  -8.652 -17.886  1.00  0.00    -0.385 OA
ATOM     19  H   UNL     1      -0.900  -8.746 -18.541  1.00  0.00    +0.211 HD
ENDBRANCH  15  18
ENDBRANCH   7   8
ENDBRANCH   1   7
BRANCH   2  20
ATOM     20  O   UNL     1      -5.165  -9.894 -15.539  1.00  0.00    -0.385 OA
ATOM     21  H   UNL     1      -5.859  -9.378 -15.083  1.00  0.00    +0.211 HD
ENDBRANCH   2  20
BRANCH   3  22
ATOM     22  O   UNL     1      -6.680 -11.530 -13.882  1.00  0.00    -0.387 OA
ATOM     23  H   UNL     1      -6.385 -10.639 -13.599  1.00  0.00    +0.211 HD
ENDBRANCH   3  22
BRANCH   5  24
ATOM     24  C   UNL     1      -6.607 -13.890 -17.816  1.00  0.00    +0.220 C 
BRANCH  24  25
ATOM     25  O   UNL     1      -6.779 -14.032 -19.225  1.00  0.00    -0.245 OA
BRANCH  25  26
ATOM     26  S   UNL     1      -5.493 -14.494 -20.102  1.00  0.00    +0.397 S 
ATOM     27  O   UNL     1      -5.762 -14.307 -21.509  1.00  0.00    -0.169 OA
ATOM     28  O   UNL     1      -5.008 -15.748 -19.571  1.00  0.00    -0.169 OA
BRANCH  26  29
ATOM     29  O   UNL     1      -4.385 -13.410 -19.667  1.00  0.00    -0.264 OA
ATOM     30  H   UNL     1      -4.260 -13.502 -18.701  1.00  0.00    +0.236 HD
ENDBRANCH  26  29
ENDBRANCH  25  26
ENDBRANCH  24  25
ENDBRANCH   5  24
BRANCH   4  31
ATOM     31  O   UNL     1      -7.043 -13.784 -15.109  1.00  0.00    -0.387 OA
ATOM     32  H   UNL     1      -7.329 -13.711 -14.171  1.00  0.00    +0.211 HD
ENDBRANCH   4  31
TORSDOF 11
ENDMDL
MODEL 4
REMARK VINA RESULT:    -6.594     26.002     28.526
REMARK INTER + INTRA:         -10.604
REMARK INTER:                  -8.907
REMARK INTRA:                  -1.697
REMARK UNBOUND:                -0.926
REMARK SMILES O=S(=O)(O)OC[C@@H]1O[C@H](O[C@H]2[C@@H]3OC[C@H]2O[C@@H](O)[C@H]3O)[C@@H](O)[C@H](O)[C@@H]1O
REMARK SMILES IDX 9 1 21 2 23 3 25 4 7 5 8 6 10 7 11 8 14 9 15 10 13 11 16 12
REMARK SMILES IDX 12 13 17 14 19 15 18 16 20 18 22 20 24 22 6 24 5 25 2 26
REMARK SMILES IDX 1 27 3 28 4 29 26 31
REMARK H PARENT 18 17 20 19 22 21 24 23 4 30 26 32
ROOT
ATOM      1  C   UNL     1      -2.760 -11.894 -17.441  1.00  0.00    +0.282 C 
ATOM      2  C   UNL     1      -2.557 -10.375 -17.605  1.00  0.00    +0.202 C 
ATOM      3  C   UNL     1      -1.288 -10.151 -18.410  1.00  0.00    +0.179 C 
ATOM      4  C   UNL     1      -1.477 -10.717 -19.820  1.00  0.00    +0.177 C 
ATOM      5  C   UNL     1      -2.310 -12.020 -19.840  1.00  0.00    +0.180 C 
ATOM      6  O   UNL     1      -2.335 -12.675 -18.557  1.00  0.00    -0.341 OA
ENDROOT
BRANCH   1   7
ATOM      7  O   UNL     1      -4.128 -12.117 -17.088  1.00  0.00    -0.341 OA
BRANCH   7   8
ATOM      8  C   UNL     1      -4.292 -12.529 -15.735  1.00  0.00    +0.184 C 
ATOM      9  C   UNL     1      -5.509 -13.524 -13.996  1.00  0.00    +0.195 C 
ATOM     10  C   UNL     1      -5.361 -13.588 -15.517  1.00  0.00    +0.179 C 
ATOM     11  O   UNL     1      -5.265 -12.140 -13.633  1.00  0.00    -0.370 OA
ATOM     12  O   UNL     1      -6.565 -13.239 -16.222  1.00  0.00    -0.342 OA
ATOM     13  C   UNL     1      -4.911 -11.447 -14.857  1.00  0.00    +0.184 C 
ATOM     14  C   UNL     1      -7.174 -12.005 -15.856  1.00  0.00    +0.279 C 
ATOM     15  C   UNL     1      -6.170 -10.878 -15.527  1.00  0.00    +0.202 C 
BRANCH  14  16
ATOM     16  O   UNL     1      -8.043 -12.234 -14.749  1.00  0.00    -0.366 OA
ATOM     17  H   UNL     1      -8.137 -11.362 -14.328  1.00  0.00    +0.213 HD
ENDBRANCH  14  16
BRANCH  15  18
ATOM     18  O   UNL     1      -6.774  -9.885 -14.688  1.00  0.00    -0.385 OA
ATOM     19  H   UNL     1      -7.453 -10.383 -14.183  1.00  0.00    +0.211 HD
ENDBRANCH  15  18
ENDBRANCH   7   8
ENDBRANCH   1   7
BRANCH   2  20
ATOM     20  O   UNL     1      -2.429  -9.722 -16.330  1.00  0.00    -0.385 OA
ATOM     21  H   UNL     1      -1.652  -9.135 -16.404  1.00  0.00    +0.211 HD
ENDBRANCH   2  20
BRANCH   3  22
ATOM     22  O   UNL     1      -0.992  -8.747 -18.499  1.00  0.00    -0.387 OA
ATOM     23  H   UNL     1      -0.321  -8.588 -17.802  1.00  0.00    +0.211 HD
ENDBRANCH   3  22
BRANCH   5  24
ATOM     24  C   UNL     1      -3.721 -11.883 -20.441  1.00  0.00    +0.220 C 
BRANCH  24  25
ATOM     25  O   UNL     1      -4.230 -13.189 -20.702  1.00  0.00    -0.245 OA
BRANCH  25  26
ATOM     26  S   UNL     1      -5.607 -13.628 -19.961  1.00  0.00    +0.397 S 
ATOM     27  O   UNL     1      -5.338 -14.669 -18.995  1.00  0.00    -0.169 OA
ATOM     28  O   UNL     1      -6.641 -13.755 -20.963  1.00  0.00    -0.169 OA
BRANCH  26  29
ATOM     29  O   UNL     1      -5.987 -12.292 -19.147  1.00  0.00    -0.264 OA
ATOM     30  H   UNL     1      -6.932 -12.366 -18.904  1.00  0.00    +0.236 HD
ENDBRANCH  26  29
ENDBRANCH  25  26
ENDBRANCH  24  25
ENDBRANCH   5  24
BRANCH   4  31
ATOM     31  O   UNL     1      -2.059  -9.710 -20.655  1.00  0.00    -0.387 OA
ATOM     32  H   UNL     1      -2.198 -10.153 -21.523  1.00  0.00    +0.211 HD
ENDBRANCH   4  31
TORSDOF 11
ENDMDL
MODEL 5
REMARK VINA RESULT:    -6.558     26.702     28.931
REMARK INTER + INTRA:         -10.551
REMARK INTER:                  -9.275
REMARK INTRA:                  -1.275
REMARK UNBOUND:                -0.926
REMARK SMILES O=S(=O)(O)OC[C@@H]1O[C@H](O[C@H]2[C@@H]3OC[C@H]2O[C@@H](O)[C@H]3O)[C@@H](O)[C@H](O)[C@@H]1O
REMARK SMILES IDX 9 1 21 2 23 3 25 4 7 5 8 6 10 7 11 8 14 9 15 10 13 11 16 12
REMARK SMILES IDX 12 13 17 14 19 15 18 16 20 18 22 20 24 22 6 24 5 25 2 26
REMARK SMILES IDX 1 27 3 28 4 29 26 31
REMARK H PARENT 18 17 20 19 22 21 24 23 4 30 26 32
ROOT
ATOM      1  C   UNL     1      -3.812 -10.799 -18.496  1.00  0.00    +0.282 C 
ATOM      2  C   UNL     1      -2.804  -9.667 -18.219  1.00  0.00    +0.202 C 
ATOM      3  C   UNL     1      -1.786  -9.653 -19.347  1.00  0.00    +0.179 C 
ATOM      4  C   UNL     1      -2.490  -9.294 -20.659  1.00  0.00    +0.177 C 
ATOM      5  C   UNL     1      -3.910  -9.899 -20.765  1.00  0.00    +0.180 C 
ATOM      6  O   UNL     1      -4.099 -11.016 -19.876  1.00  0.00    -0.341 OA
ENDROOT
BRANCH   1   7
ATOM      7  O   UNL     1      -4.981 -10.546 -17.712  1.00  0.00    -0.341 OA
BRANCH   7   8
ATOM      8  C   UNL     1      -5.740 -11.721 -17.449  1.00  0.00    +0.184 C 
ATOM      9  C   UNL     1      -7.428 -12.901 -16.330  1.00  0.00    +0.195 C 
ATOM     10  C   UNL     1      -7.075 -11.477 -16.763  1.00  0.00    +0.179 C 
ATOM     11  O   UNL     1      -6.164 -13.551 -16.039  1.00  0.00    -0.370 OA
ATOM     12  O   UNL     1      -6.913 -10.569 -15.659  1.00  0.00    -0.342 OA
ATOM     13  C   UNL     1      -5.122 -12.595 -16.364  1.00  0.00    +0.184 C 
ATOM     14  C   UNL     1      -6.026 -10.984 -14.626  1.00  0.00    +0.279 C 
ATOM     15  C   UNL     1      -4.781 -11.746 -15.132  1.00  0.00    +0.202 C 
BRANCH  14  16
ATOM     16  O   UNL     1      -6.752 -11.783 -13.694  1.00  0.00    -0.366 OA
ATOM     17  H   UNL     1      -7.543 -12.071 -14.183  1.00  0.00    +0.213 HD
ENDBRANCH  14  16
BRANCH  15  18
ATOM     18  O   UNL     1      -4.231 -12.570 -14.096  1.00  0.00    -0.385 OA
ATOM     19  H   UNL     1      -5.016 -13.004 -13.697  1.00  0.00    +0.211 HD
ENDBRANCH  15  18
ENDBRANCH   7   8
ENDBRANCH   1   7
BRANCH   2  20
ATOM     20  O   UNL     1      -2.121  -9.866 -16.969  1.00  0.00    -0.385 OA
ATOM     21  H   UNL     1      -1.223 -10.177 -17.198  1.00  0.00    +0.211 HD
ENDBRANCH   2  20
BRANCH   3  22
ATOM     22  O   UNL     1      -0.758  -8.684 -19.082  1.00  0.00    -0.387 OA
ATOM     23  H   UNL     1      -0.049  -9.189 -18.630  1.00  0.00    +0.211 HD
ENDBRANCH   3  22
BRANCH   5  24
ATOM     24  C   UNL     1      -5.062  -8.882 -20.660  1.00  0.00    +0.220 C 
BRANCH  24  25
ATOM     25  O   UNL     1      -5.248  -8.275 -21.937  1.00  0.00    -0.245 OA
BRANCH  25  26
ATOM     26  S   UNL     1      -5.689  -6.713 -21.976  1.00  0.00    +0.397 S 
ATOM     27  O   UNL     1      -7.080  -6.584 -21.607  1.00  0.00    -0.169 OA
ATOM     28  O   UNL     1      -5.152  -6.120 -23.180  1.00  0.00    -0.169 OA
BRANCH  26  29
ATOM     29  O   UNL     1      -4.807  -6.088 -20.783  1.00  0.00    -0.264 OA
ATOM     30  H   UNL     1      -4.083  -6.722 -20.601  1.00  0.00    +0.236 HD
ENDBRANCH  26  29
ENDBRANCH  25  26
ENDBRANCH  24  25
ENDBRANCH   5  24
BRANCH   4  31
ATOM     31  O   UNL     1      -2.515  -7.870 -20.804  1.00  0.00    -0.387 OA
ATOM     32  H   UNL     1      -2.344  -7.712 -21.759  1.00  0.00    +0.211 HD
ENDBRANCH   4  31
TORSDOF 11
ENDMDL
MODEL 6
REMARK VINA RESULT:    -6.507     25.896     28.275
REMARK INTER + INTRA:         -10.476
REMARK INTER:                  -8.645
REMARK INTRA:                  -1.832
REMARK UNBOUND:                -0.926
REMARK SMILES O=S(=O)(O)OC[C@@H]1O[C@H](O[C@H]2[C@@H]3OC[C@H]2O[C@@H](O)[C@H]3O)[C@@H](O)[C@H](O)[C@@H]1O
REMARK SMILES IDX 9 1 21 2 23 3 25 4 7 5 8 6 10 7 11 8 14 9 15 10 13 11 16 12
REMARK SMILES IDX 12 13 17 14 19 15 18 16 20 18 22 20 24 22 6 24 5 25 2 26
REMARK SMILES IDX 1 27 3 28 4 29 26 31
REMARK H PARENT 18 17 20 19 22 21 24 23 4 30 26 32
ROOT
ATOM      1  C   UNL     1      -5.440 -12.030 -17.041  1.00  0.00    +0.282 C 
ATOM      2  C   UNL     1      -5.707 -11.382 -15.669  1.00  0.00    +0.202 C 
ATOM      3  C   UNL     1      -6.637 -12.295 -14.887  1.00  0.00    +0.179 C 
ATOM      4  C   UNL     1      -5.926 -13.622 -14.608  1.00  0.00    +0.177 C 
ATOM      5  C   UNL     1      -5.025 -14.081 -15.779  1.00  0.00    +0.180 C 
ATOM      6  O   UNL     1      -5.385 -13.456 -17.025  1.00  0.00    -0.341 OA
ENDROOT
BRANCH   1   7
ATOM      7  O   UNL     1      -4.262 -11.429 -17.587  1.00  0.00    -0.341 OA
BRANCH   7   8
ATOM      8  C   UNL     1      -4.550 -10.413 -18.543  1.00  0.00    +0.184 C 
ATOM      9  C   UNL     1      -4.280  -9.389 -20.634  1.00  0.00    +0.195 C 
ATOM     10  C   UNL     1      -4.180 -10.766 -19.976  1.00  0.00    +0.179 C 
ATOM     11  O   UNL     1      -3.882  -8.434 -19.616  1.00  0.00    -0.370 OA
ATOM     12  O   UNL     1      -2.857 -11.329 -20.029  1.00  0.00    -0.342 OA
ATOM     13  C   UNL     1      -3.644  -9.195 -18.404  1.00  0.00    +0.184 C 
ATOM     14  C   UNL     1      -1.800 -10.500 -19.558  1.00  0.00    +0.279 C 
ATOM     15  C   UNL     1      -2.175  -9.634 -18.335  1.00  0.00    +0.202 C 
BRANCH  14  16
ATOM     16  O   UNL     1      -1.352  -9.676 -20.631  1.00  0.00    -0.366 OA
ATOM     17  H   UNL     1      -0.647 -10.193 -21.059  1.00  0.00    +0.213 HD
ENDBRANCH  14  16
BRANCH  15  18
ATOM     18  O   UNL     1      -1.318  -8.489 -18.239  1.00  0.00    -0.385 OA
ATOM     19  H   UNL     1      -1.608  -7.913 -18.979  1.00  0.00    +0.211 HD
ENDBRANCH  15  18
ENDBRANCH   7   8
ENDBRANCH   1   7
BRANCH   2  20
ATOM     20  O   UNL     1      -6.322 -10.090 -15.809  1.00  0.00    -0.385 OA
ATOM     21  H   UNL     1      -5.590  -9.442 -15.815  1.00  0.00    +0.211 HD
ENDBRANCH   2  20
BRANCH   3  22
ATOM     22  O   UNL     1      -7.007 -11.684 -13.639  1.00  0.00    -0.387 OA
ATOM     23  H   UNL     1      -7.924 -11.366 -13.778  1.00  0.00    +0.211 HD
ENDBRANCH   3  22
BRANCH   5  24
ATOM     24  C   UNL     1      -3.512 -13.995 -15.510  1.00  0.00    +0.220 C 
BRANCH  24  25
ATOM     25  O   UNL     1      -2.842 -14.876 -16.409  1.00  0.00    -0.245 OA
BRANCH  25  26
ATOM     26  S   UNL     1      -1.862 -14.219 -17.524  1.00  0.00    +0.397 S 
ATOM     27  O   UNL     1      -0.944 -15.216 -18.024  1.00  0.00    -0.169 OA
ATOM     28  O   UNL     1      -1.413 -12.936 -17.033  1.00  0.00    -0.169 OA
BRANCH  26  29
ATOM     29  O   UNL     1      -2.894 -13.866 -18.708  1.00  0.00    -0.264 OA
ATOM     30  H   UNL     1      -2.358 -13.628 -19.492  1.00  0.00    +0.236 HD
ENDBRANCH  26  29
ENDBRANCH  25  26
ENDBRANCH  24  25
ENDBRANCH   5  24
BRANCH   4  31
ATOM     31  O   UNL     1      -5.184 -13.509 -13.389  1.00  0.00    -0.387 OA
ATOM     32  H   UNL     1      -5.866 -13.424 -12.686  1.00  0.00    +0.211 HD
ENDBRANCH   4  31
TORSDOF 11
ENDMDL
MODEL 7
REMARK VINA RESULT:    -6.163     26.106     28.407
REMARK INTER + INTRA:          -9.972
REMARK INTER:                  -9.157
REMARK INTRA:                  -0.814
REMARK UNBOUND:                -0.926
REMARK SMILES O=S(=O)(O)OC[C@@H]1O[C@H](O[C@H]2[C@@H]3OC[C@H]2O[C@@H](O)[C@H]3O)[C@@H](O)[C@H](O)[C@@H]1O
REMARK SMILES IDX 9 1 21 2 23 3 25 4 7 5 8 6 10 7 11 8 14 9 15 10 13 11 16 12
REMARK SMILES IDX 12 13 17 14 19 15 18 16 20 18 22 20 24 22 6 24 5 25 2 26
REMARK SMILES IDX 1 27 3 28 4 29 26 31
REMARK H PARENT 18 17 20 19 22 21 24 23 4 30 26 32
ROOT
ATOM      1  C   UNL     1      -3.898 -11.207 -17.568  1.00  0.00    +0.282 C 
ATOM      2  C   UNL     1      -3.241  -9.848 -17.258  1.00  0.00    +0.202 C 
ATOM      3  C   UNL     1      -2.100  -9.639 -18.238  1.00  0.00    +0.179 C 
ATOM      4  C   UNL     1      -2.665  -9.533 -19.658  1.00  0.00    +0.177 C 
ATOM      5  C   UNL     1      -3.869 -10.475 -19.899  1.00  0.00    +0.180 C 
ATOM      6  O   UNL     1      -3.916 -11.558 -18.950  1.00  0.00    -0.341 OA
ENDROOT
BRANCH   1   7
ATOM      7  O   UNL     1      -5.198 -11.211 -16.970  1.00  0.00    -0.341 OA
BRANCH   7   8
ATOM      8  C   UNL     1      -5.161 -11.431 -15.563  1.00  0.00    +0.184 C 
ATOM      9  C   UNL     1      -5.012 -12.816 -13.678  1.00  0.00    +0.195 C 
ATOM     10  C   UNL     1      -4.579 -12.772 -15.144  1.00  0.00    +0.179 C 
ATOM     11  O   UNL     1      -6.285 -12.122 -13.620  1.00  0.00    -0.370 OA
ATOM     12  O   UNL     1      -5.141 -13.834 -15.936  1.00  0.00    -0.342 OA
ATOM     13  C   UNL     1      -6.547 -11.625 -14.958  1.00  0.00    +0.184 C 
ATOM     14  C   UNL     1      -6.553 -13.995 -15.862  1.00  0.00    +0.279 C 
ATOM     15  C   UNL     1      -7.336 -12.666 -15.764  1.00  0.00    +0.202 C 
BRANCH  14  16
ATOM     16  O   UNL     1      -6.861 -14.835 -14.752  1.00  0.00    -0.366 OA
ATOM     17  H   UNL     1      -6.753 -14.260 -13.974  1.00  0.00    +0.213 HD
ENDBRANCH  14  16
BRANCH  15  18
ATOM     18  O   UNL     1      -8.626 -12.876 -15.177  1.00  0.00    -0.385 OA
ATOM     19  H   UNL     1      -8.543 -13.744 -14.727  1.00  0.00    +0.211 HD
ENDBRANCH  15  18
ENDBRANCH   7   8
ENDBRANCH   1   7
BRANCH   2  20
ATOM     20  O   UNL     1      -2.725  -9.808 -15.916  1.00  0.00    -0.385 OA
ATOM     21  H   UNL     1      -1.794  -9.519 -15.993  1.00  0.00    +0.211 HD
ENDBRANCH   2  20
BRANCH   3  22
ATOM     22  O   UNL     1      -1.383  -8.433 -17.924  1.00  0.00    -0.387 OA
ATOM     23  H   UNL     1      -0.936  -8.182 -18.759  1.00  0.00    +0.211 HD
ENDBRANCH   3  22
BRANCH   5  24
ATOM     24  C   UNL     1      -5.232  -9.771 -20.034  1.00  0.00    +0.220 C 
BRANCH  24  25
ATOM     25  O   UNL     1      -5.292  -9.144 -21.313  1.00  0.00    -0.245 OA
BRANCH  25  26
ATOM     26  S   UNL     1      -6.188  -7.798 -21.454  1.00  0.00    +0.397 S 
ATOM     27  O   UNL     1      -5.510  -6.685 -20.828  1.00  0.00    -0.169 OA
ATOM     28  O   UNL     1      -7.561  -8.132 -21.150  1.00  0.00    -0.169 OA
BRANCH  26  29
ATOM     29  O   UNL     1      -6.169  -7.549 -23.044  1.00  0.00    -0.264 OA
ATOM     30  H   UNL     1      -6.036  -6.589 -23.181  1.00  0.00    +0.236 HD
ENDBRANCH  26  29
ENDBRANCH  25  26
ENDBRANCH  24  25
ENDBRANCH   5  24
BRANCH   4  31
ATOM     31  O   UNL     1      -3.007  -8.168 -19.926  1.00  0.00    -0.387 OA
ATOM     32  H   UNL     1      -2.399  -7.895 -20.649  1.00  0.00    +0.211 HD
ENDBRANCH   4  31
TORSDOF 11
ENDMDL
MODEL 8
REMARK VINA RESULT:    -6.163      2.990      5.154
REMARK INTER + INTRA:          -9.971
REMARK INTER:                  -8.939
REMARK INTRA:                  -1.032
REMARK UNBOUND:                -0.926
REMARK SMILES O=S(=O)(O)OC[C@@H]1O[C@H](O[C@H]2[C@@H]3OC[C@H]2O[C@@H](O)[C@H]3O)[C@@H](O)[C@H](O)[C@@H]1O
REMARK SMILES IDX 9 1 21 2 23 3 25 4 7 5 8 6 10 7 11 8 14 9 15 10 13 11 16 12
REMARK SMILES IDX 12 13 17 14 19 15 18 16 20 18 22 20 24 22 6 24 5 25 2 26
REMARK SMILES IDX 1 27 3 28 4 29 26 31
REMARK H PARENT 18 17 20 19 22 21 24 23 4 30 26 32
ROOT
ATOM      1  C   UNL     1      -6.242  -6.069  10.466  1.00  0.00    +0.282 C 
ATOM      2  C   UNL     1      -6.479  -5.281  11.768  1.00  0.00    +0.202 C 
ATOM      3  C   UNL     1      -5.844  -3.910  11.616  1.00  0.00    +0.179 C 
ATOM      4  C   UNL     1      -6.564  -3.139  10.506  1.00  0.00    +0.177 C 
ATOM      5  C   UNL     1      -6.996  -4.043   9.327  1.00  0.00    +0.180 C 
ATOM      6  O   UNL     1      -6.252  -5.276   9.280  1.00  0.00    -0.341 OA
ENDROOT
BRANCH   1   7
ATOM      7  O   UNL     1      -7.180  -7.148  10.429  1.00  0.00    -0.341 OA
BRANCH   7   8
ATOM      8  C   UNL     1      -6.564  -8.425  10.556  1.00  0.00    +0.184 C 
ATOM      9  C   UNL     1      -5.514 -10.325   9.672  1.00  0.00    +0.195 C 
ATOM     10  C   UNL     1      -5.705  -8.837   9.371  1.00  0.00    +0.179 C 
ATOM     11  O   UNL     1      -6.734 -10.756  10.327  1.00  0.00    -0.370 OA
ATOM     12  O   UNL     1      -6.402  -8.591   8.136  1.00  0.00    -0.342 OA
ATOM     13  C   UNL     1      -7.562  -9.574  10.480  1.00  0.00    +0.184 C 
ATOM     14  C   UNL     1      -7.639  -9.273   7.963  1.00  0.00    +0.279 C 
ATOM     15  C   UNL     1      -8.473  -9.404   9.257  1.00  0.00    +0.202 C 
BRANCH  14  16
ATOM     16  O   UNL     1      -7.378 -10.560   7.408  1.00  0.00    -0.366 OA
ATOM     17  H   UNL     1      -6.920 -10.375   6.569  1.00  0.00    +0.213 HD
ENDBRANCH  14  16
BRANCH  15  18
ATOM     18  O   UNL     1      -9.391 -10.502   9.163  1.00  0.00    -0.385 OA
ATOM     19  H   UNL     1     -10.005 -10.236   8.445  1.00  0.00    +0.211 HD
ENDBRANCH  15  18
ENDBRANCH   7   8
ENDBRANCH   1   7
BRANCH   2  20
ATOM     20  O   UNL     1      -5.896  -5.948  12.900  1.00  0.00    -0.385 OA
ATOM     21  H   UNL     1      -4.928  -5.891  12.779  1.00  0.00    +0.211 HD
ENDBRANCH   2  20
BRANCH   3  22
ATOM     22  O   UNL     1      -5.942  -3.171  12.845  1.00  0.00    -0.387 OA
ATOM     23  H   UNL     1      -6.806  -3.434  13.226  1.00  0.00    +0.211 HD
ENDBRANCH   3  22
BRANCH   5  24
ATOM     24  C   UNL     1      -8.512  -4.283   9.210  1.00  0.00    +0.220 C 
BRANCH  24  25
ATOM     25  O   UNL     1      -9.138  -3.056   8.844  1.00  0.00    -0.245 OA
BRANCH  25  26
ATOM     26  S   UNL     1      -9.926  -3.001   7.426  1.00  0.00    +0.397 S 
ATOM     27  O   UNL     1      -9.320  -2.015   6.561  1.00  0.00    -0.169 OA
ATOM     28  O   UNL     1     -11.346  -3.020   7.695  1.00  0.00    -0.169 OA
BRANCH  26  29
ATOM     29  O   UNL     1      -9.607  -4.454   6.810  1.00  0.00    -0.264 OA
ATOM     30  H   UNL     1      -8.633  -4.549   6.796  1.00  0.00    +0.236 HD
ENDBRANCH  26  29
ENDBRANCH  25  26
ENDBRANCH  24  25
ENDBRANCH   5  24
BRANCH   4  31
ATOM     31  O   UNL     1      -7.681  -2.442  11.067  1.00  0.00    -0.387 OA
ATOM     32  H   UNL     1      -7.434  -2.287  12.007  1.00  0.00    +0.211 HD
ENDBRANCH   4  31
TORSDOF 11
ENDMDL
MODEL 9
REMARK VINA RESULT:    -6.067     26.765     28.974
REMARK INTER + INTRA:          -9.830
REMARK INTER:                  -8.840
REMARK INTRA:                  -0.990
REMARK UNBOUND:                -0.926
REMARK SMILES O=S(=O)(O)OC[C@@H]1O[C@H](O[C@H]2[C@@H]3OC[C@H]2O[C@@H](O)[C@H]3O)[C@@H](O)[C@H](O)[C@@H]1O
REMARK SMILES IDX 9 1 21 2 23 3 25 4 7 5 8 6 10 7 11 8 14 9 15 10 13 11 16 12
REMARK SMILES IDX 12 13 17 14 19 15 18 16 20 18 22 20 24 22 6 24 5 25 2 26
REMARK SMILES IDX 1 27 3 28 4 29 26 31
REMARK H PARENT 18 17 20 19 22 21 24 23 4 30 26 32
ROOT
ATOM      1  C   UNL     1      -4.923  -9.256 -19.039  1.00  0.00    +0.282 C 
ATOM      2  C   UNL     1      -5.488  -9.318 -20.471  1.00  0.00    +0.202 C 
ATOM      3  C   UNL     1      -5.013  -8.086 -21.222  1.00  0.00    +0.179 C 
ATOM      4  C   UNL     1      -3.489  -8.131 -21.355  1.00  0.00    +0.177 C 
ATOM      5  C   UNL     1      -2.791  -8.721 -20.106  1.00  0.00    +0.180 C 
ATOM      6  O   UNL     1      -3.628  -8.668 -18.935  1.00  0.00    -0.341 OA
ENDROOT
BRANCH   1   7
ATOM      7  O   UNL     1      -4.988 -10.573 -18.485  1.00  0.00    -0.341 OA
BRANCH   7   8
ATOM      8  C   UNL     1      -5.811 -10.648 -17.325  1.00  0.00    +0.184 C 
ATOM      9  C   UNL     1      -6.153 -10.562 -15.008  1.00  0.00    +0.195 C 
ATOM     10  C   UNL     1      -5.219 -10.002 -16.082  1.00  0.00    +0.179 C 
ATOM     11  O   UNL     1      -6.532 -11.886 -15.464  1.00  0.00    -0.370 OA
ATOM     12  O   UNL     1      -3.848 -10.404 -15.912  1.00  0.00    -0.342 OA
ATOM     13  C   UNL     1      -5.927 -12.063 -16.771  1.00  0.00    +0.184 C 
ATOM     14  C   UNL     1      -3.615 -11.801 -15.761  1.00  0.00    +0.279 C 
ATOM     15  C   UNL     1      -4.533 -12.691 -16.628  1.00  0.00    +0.202 C 
BRANCH  14  16
ATOM     16  O   UNL     1      -3.750 -12.141 -14.383  1.00  0.00    -0.366 OA
ATOM     17  H   UNL     1      -3.279 -11.433 -13.909  1.00  0.00    +0.213 HD
ENDBRANCH  14  16
BRANCH  15  18
ATOM     18  O   UNL     1      -4.636 -14.009 -16.074  1.00  0.00    -0.385 OA
ATOM     19  H   UNL     1      -4.736 -14.588 -16.859  1.00  0.00    +0.211 HD
ENDBRANCH  15  18
ENDBRANCH   7   8
ENDBRANCH   1   7
BRANCH   2  20
ATOM     20  O   UNL     1      -6.926  -9.345 -20.468  1.00  0.00    -0.385 OA
ATOM     21  H   UNL     1      -7.204  -8.996 -21.337  1.00  0.00    +0.211 HD
ENDBRANCH   2  20
BRANCH   3  22
ATOM     22  O   UNL     1      -5.602  -8.040 -22.532  1.00  0.00    -0.387 OA
ATOM     23  H   UNL     1      -5.734  -8.979 -22.781  1.00  0.00    +0.211 HD
ENDBRANCH   3  22
BRANCH   5  24
ATOM     24  C   UNL     1      -2.170 -10.116 -20.304  1.00  0.00    +0.220 C 
BRANCH  24  25
ATOM     25  O   UNL     1      -1.678 -10.574 -19.047  1.00  0.00    -0.245 OA
BRANCH  25  26
ATOM     26  S   UNL     1      -0.222 -11.291 -19.019  1.00  0.00    +0.397 S 
ATOM     27  O   UNL     1      -0.052 -12.109 -20.199  1.00  0.00    -0.169 OA
ATOM     28  O   UNL     1       0.006 -11.803 -17.687  1.00  0.00    -0.169 OA
BRANCH  26  29
ATOM     29  O   UNL     1       0.772 -10.032 -19.150  1.00  0.00    -0.264 OA
ATOM     30  H   UNL     1       1.631 -10.307 -18.770  1.00  0.00    +0.236 HD
ENDBRANCH  26  29
ENDBRANCH  25  26
ENDBRANCH  24  25
ENDBRANCH   5  24
BRANCH   4  31
ATOM     31  O   UNL     1      -3.143  -8.856 -22.540  1.00  0.00    -0.387 OA
ATOM     32  H   UNL     1      -3.997  -9.001 -23.005  1.00  0.00    +0.211 HD
ENDBRANCH   4  31
TORSDOF 11
ENDMDL
