MODEL 1
REMARK VINA RESULT:    -5.876      0.000      0.000
REMARK INTER + INTRA:         -22.618
REMARK INTER:                 -14.808
REMARK INTRA:                  -7.810
REMARK UNBOUND:                -7.810
REMARK SMILES N[C@@H]1[C@@H](O[C@@H]2[C@H](N)[C@H](O[C@@H]3O[C@H](CO)[C@@H](O)[C@H](O[C@@H]4O[C@@H](CO)[C@@H](O)[C@H](O)[C@H]4N)[C@H]3N)O[C@@H](CO[C@H]3O[C@@H](CO)[C@@H](O)[C@H](O)[C@H]3N)[C@H]2O[C@H]2O[C@@H](CO)[C@@H](O)[C@@H](O)[C@H]2N)O[C@H](CO)[C@H](O)[C@H]1O
REMARK SMILES IDX 33 1 47 2 5 3 6 4 8 5 32 6 34 7 35 8 36 9 38 10 41 11 37 12
REMARK SMILES IDX 43 13 45 14 39 15 40 16 42 18 44 20 46 22 48 25 49 26 58 27
REMARK SMILES IDX 50 28 56 29 51 30 54 31 59 32 57 35 52 37 53 38 55 40 4 42
REMARK SMILES IDX 3 43 2 44 60 45 66 46 61 47 64 48 1 49 67 52 62 54 63 55
REMARK SMILES IDX 65 57 9 59 10 60 30 61 11 62 17 63 12 64 15 65 31 66 18 69
REMARK SMILES IDX 19 70 28 71 20 72 26 73 21 74 24 75 29 76 27 79 22 81 23 82
REMARK SMILES IDX 25 84 13 86 14 87 16 89 7 91
REMARK H PARENT 40 17 42 19 44 21 46 23 46 24 59 33 59 34 57 36 53 39 55 41
REMARK H PARENT 1 50 1 51 67 53 63 56 65 58 31 67 31 68 29 77 29 78 27 80
REMARK H PARENT 23 83 25 85 14 88 16 90 7 92 7 93
ROOT
ATOM      1  C   UNL     1      -7.270  -4.801   8.960  1.00  0.00    +0.179 C 
ATOM      2  C   UNL     1      -6.865  -6.286   8.858  1.00  0.00    +0.183 C 
ATOM      3  C   UNL     1      -8.033  -7.214   9.249  1.00  0.00    +0.175 C 
ATOM      4  C   UNL     1      -9.296  -6.838   8.444  1.00  0.00    +0.140 C 
ATOM      5  C   UNL     1      -9.599  -5.328   8.658  1.00  0.00    +0.273 C 
ATOM      6  O   UNL     1      -8.492  -4.537   8.247  1.00  0.00    -0.342 OA
ENDROOT
BRANCH   1   7
ATOM      7  C   UNL     1      -7.326  -4.287  10.419  1.00  0.00    +0.198 C 
BRANCH   7   8
ATOM      8  O   UNL     1      -8.321  -4.986  11.173  1.00  0.00    -0.348 OA
BRANCH   8   9
ATOM      9  C   UNL     1      -8.220  -4.744  12.584  1.00  0.00    +0.270 C 
ATOM     10  C   UNL     1      -9.147  -5.378  14.724  1.00  0.00    +0.178 C 
ATOM     11  C   UNL     1      -7.988  -4.506  15.235  1.00  0.00    +0.176 C 
ATOM     12  O   UNL     1      -9.205  -5.489  13.295  1.00  0.00    -0.342 OA
ATOM     13  C   UNL     1      -6.650  -4.876  14.578  1.00  0.00    +0.167 C 
ATOM     14  C   UNL     1      -6.784  -5.122  13.058  1.00  0.00    +0.139 C 
BRANCH  10  15
ATOM     15  C   UNL     1      -9.191  -6.797  15.315  1.00  0.00    +0.191 C 
BRANCH  15  16
ATOM     16  O   UNL     1      -7.885  -7.351  15.454  1.00  0.00    -0.394 OA
ATOM     17  H   UNL     1      -7.264  -6.728  15.035  1.00  0.00    +0.210 HD
ENDBRANCH  15  16
ENDBRANCH  10  15
BRANCH  11  18
ATOM     18  O   UNL     1      -7.854  -4.526  16.662  1.00  0.00    -0.388 OA
ATOM     19  H   UNL     1      -8.659  -4.939  17.024  1.00  0.00    +0.211 HD
ENDBRANCH  11  18
BRANCH  13  20
ATOM     20  O   UNL     1      -5.729  -3.793  14.818  1.00  0.00    -0.388 OA
ATOM     21  H   UNL     1      -5.935  -3.484  15.721  1.00  0.00    +0.211 HD
ENDBRANCH  13  20
BRANCH  14  22
ATOM     22  N   UNL     1      -6.468  -6.548  12.738  1.00  0.00    -0.321 NA
ATOM     23  H   UNL     1      -6.362  -7.018  13.652  1.00  0.00    +0.119 HD
ATOM     24  H   UNL     1      -7.342  -6.964  12.370  1.00  0.00    +0.119 HD
ENDBRANCH  14  22
ENDBRANCH   8   9
ENDBRANCH   7   8
ENDBRANCH   1   7
BRANCH   2  25
ATOM     25  O   UNL     1      -5.751  -6.551   9.731  1.00  0.00    -0.342 OA
BRANCH  25  26
ATOM     26  C   UNL     1      -4.917  -7.610   9.244  1.00  0.00    +0.270 C 
ATOM     27  C   UNL     1      -4.308  -8.352  10.475  1.00  0.00    +0.139 C 
ATOM     28  O   UNL     1      -3.885  -7.088   8.410  1.00  0.00    -0.342 OA
ATOM     29  C   UNL     1      -3.346  -9.480  10.005  1.00  0.00    +0.167 C 
ATOM     30  C   UNL     1      -2.929  -8.052   7.947  1.00  0.00    +0.178 C 
ATOM     31  C   UNL     1      -3.163  -9.480   8.483  1.00  0.00    +0.176 C 
BRANCH  27  32
ATOM     32  N   UNL     1      -3.689  -7.402  11.437  1.00  0.00    -0.321 NA
ATOM     33  H   UNL     1      -4.352  -6.632  11.573  1.00  0.00    +0.119 HD
ATOM     34  H   UNL     1      -3.670  -7.874  12.344  1.00  0.00    +0.119 HD
ENDBRANCH  27  32
BRANCH  29  35
ATOM     35  O   UNL     1      -2.038  -9.405  10.609  1.00  0.00    -0.388 OA
ATOM     36  H   UNL     1      -1.668  -8.554  10.290  1.00  0.00    +0.211 HD
ENDBRANCH  29  35
BRANCH  30  37
ATOM     37  C   UNL     1      -1.513  -7.487   8.184  1.00  0.00    +0.191 C 
BRANCH  37  38
ATOM     38  O   UNL     1      -0.531  -7.982   7.275  1.00  0.00    -0.394 OA
ATOM     39  H   UNL     1      -0.685  -7.538   6.411  1.00  0.00    +0.210 HD
ENDBRANCH  37  38
ENDBRANCH  30  37
BRANCH  31  40
ATOM     40  O   UNL     1      -2.111 -10.384   8.131  1.00  0.00    -0.388 OA
ATOM     41  H   UNL     1      -2.353 -10.809   7.287  1.00  0.00    +0.211 HD
ENDBRANCH  31  40
ENDBRANCH  25  26
ENDBRANCH   2  25
BRANCH   3  42
ATOM     42  O   UNL     1      -7.605  -8.578   9.044  1.00  0.00    -0.343 OA
BRANCH  42  43
ATOM     43  C   UNL     1      -7.846  -9.448  10.156  1.00  0.00    +0.270 C 
ATOM     44  C   UNL     1      -8.952 -10.447   9.724  1.00  0.00    +0.139 C 
ATOM     45  O   UNL     1      -8.245  -8.648  11.273  1.00  0.00    -0.342 OA
ATOM     46  C   UNL     1      -9.465 -11.252  10.926  1.00  0.00    +0.167 C 
ATOM     47  C   UNL     1      -8.671  -9.384  12.424  1.00  0.00    +0.178 C 
ATOM     48  C   UNL     1      -9.847 -10.313  12.073  1.00  0.00    +0.176 C 
BRANCH  44  49
ATOM     49  N   UNL     1      -8.476 -11.369   8.664  1.00  0.00    -0.321 NA
ATOM     50  H   UNL     1      -7.659 -11.868   9.020  1.00  0.00    +0.119 HD
ATOM     51  H   UNL     1      -8.151 -10.789   7.885  1.00  0.00    +0.119 HD
ENDBRANCH  44  49
BRANCH  46  52
ATOM     52  O   UNL     1     -10.620 -12.019  10.540  1.00  0.00    -0.388 OA
ATOM     53  H   UNL     1     -10.275 -12.911  10.332  1.00  0.00    +0.211 HD
ENDBRANCH  46  52
BRANCH  47  54
ATOM     54  C   UNL     1      -7.488 -10.076  13.127  1.00  0.00    +0.191 C 
BRANCH  54  55
ATOM     55  O   UNL     1      -7.731 -10.187  14.526  1.00  0.00    -0.394 OA
ATOM     56  H   UNL     1      -8.532  -9.662  14.719  1.00  0.00    +0.210 HD
ENDBRANCH  54  55
ENDBRANCH  47  54
BRANCH  48  57
ATOM     57  O   UNL     1     -10.328 -11.096  13.171  1.00  0.00    -0.388 OA
ATOM     58  H   UNL     1     -11.277 -11.294  13.004  1.00  0.00    +0.211 HD
ENDBRANCH  48  57
ENDBRANCH  42  43
ENDBRANCH   3  42
BRANCH   5  59
ATOM     59  O   UNL     1     -10.757  -5.002   7.887  1.00  0.00    -0.320 OA
BRANCH  59  60
ATOM     60  C   UNL     1     -11.907  -4.677   8.671  1.00  0.00    +0.273 C 
ATOM     61  C   UNL     1     -12.735  -5.945   9.029  1.00  0.00    +0.140 C 
ATOM     62  O   UNL     1     -11.388  -4.061   9.860  1.00  0.00    -0.342 OA
ATOM     63  C   UNL     1     -13.830  -5.570  10.051  1.00  0.00    +0.174 C 
ATOM     64  C   UNL     1     -12.417  -3.638  10.769  1.00  0.00    +0.178 C 
ATOM     65  C   UNL     1     -13.230  -4.838  11.256  1.00  0.00    +0.176 C 
BRANCH  61  66
ATOM     66  N   UNL     1     -13.368  -6.585   7.858  1.00  0.00    -0.321 NA
ATOM     67  H   UNL     1     -14.299  -6.926   8.134  1.00  0.00    +0.119 HD
ATOM     68  H   UNL     1     -12.830  -7.431   7.619  1.00  0.00    +0.119 HD
ENDBRANCH  61  66
BRANCH  63  69
ATOM     69  O   UNL     1     -14.472  -6.758  10.557  1.00  0.00    -0.343 OA
BRANCH  69  70
ATOM     70  C   UNL     1     -13.558  -7.631  11.226  1.00  0.00    +0.270 C 
ATOM     71  C   UNL     1     -14.214  -8.149  12.541  1.00  0.00    +0.139 C 
ATOM     72  O   UNL     1     -13.183  -8.675  10.315  1.00  0.00    -0.342 OA
ATOM     73  C   UNL     1     -13.623  -9.529  12.845  1.00  0.00    +0.167 C 
ATOM     74  C   UNL     1     -14.076  -9.800  10.350  1.00  0.00    +0.178 C 
ATOM     75  C   UNL     1     -13.977 -10.517  11.720  1.00  0.00    +0.176 C 
BRANCH  71  76
ATOM     76  N   UNL     1     -14.057  -7.217  13.688  1.00  0.00    -0.321 NA
ATOM     77  H   UNL     1     -15.001  -6.874  13.901  1.00  0.00    +0.119 HD
ATOM     78  H   UNL     1     -13.811  -7.776  14.521  1.00  0.00    +0.119 HD
ENDBRANCH  71  76
BRANCH  73  79
ATOM     79  O   UNL     1     -14.122 -10.034  14.095  1.00  0.00    -0.388 OA
ATOM     80  H   UNL     1     -15.051 -10.280  13.914  1.00  0.00    +0.211 HD
ENDBRANCH  73  79
BRANCH  74  81
ATOM     81  C   UNL     1     -13.767 -10.698   9.145  1.00  0.00    +0.191 C 
BRANCH  81  82
ATOM     82  O   UNL     1     -12.368 -10.690   8.845  1.00  0.00    -0.394 OA
ATOM     83  H   UNL     1     -12.176  -9.835   8.420  1.00  0.00    +0.210 HD
ENDBRANCH  81  82
ENDBRANCH  74  81
BRANCH  75  84
ATOM     84  O   UNL     1     -13.015 -11.579  11.786  1.00  0.00    -0.388 OA
ATOM     85  H   UNL     1     -12.126 -11.161  11.831  1.00  0.00    +0.211 HD
ENDBRANCH  75  84
ENDBRANCH  69  70
ENDBRANCH  63  69
BRANCH  64  86
ATOM     86  C   UNL     1     -11.727  -2.919  11.931  1.00  0.00    +0.191 C 
BRANCH  86  87
ATOM     87  O   UNL     1     -10.411  -2.523  11.529  1.00  0.00    -0.394 OA
ATOM     88  H   UNL     1      -9.811  -3.057  12.088  1.00  0.00    +0.210 HD
ENDBRANCH  86  87
ENDBRANCH  64  86
BRANCH  65  89
ATOM     89  O   UNL     1     -14.286  -4.412  12.126  1.00  0.00    -0.388 OA
ATOM     90  H   UNL     1     -15.118  -4.663  11.674  1.00  0.00    +0.211 HD
ENDBRANCH  65  89
ENDBRANCH  59  60
ENDBRANCH   5  59
BRANCH   4  91
ATOM     91  N   UNL     1      -9.136  -7.192   7.011  1.00  0.00    -0.321 NA
ATOM     92  H   UNL     1     -10.001  -7.642   6.703  1.00  0.00    +0.119 HD
ATOM     93  H   UNL     1      -8.388  -7.887   6.944  1.00  0.00    +0.119 HD
ENDBRANCH   4  91
TORSDOF 36
ENDMDL
MODEL 2
REMARK VINA RESULT:    -5.764      2.836      6.297
REMARK INTER + INTRA:         -22.336
REMARK INTER:                 -15.309
REMARK INTRA:                  -7.027
REMARK UNBOUND:                -7.810
REMARK SMILES N[C@@H]1[C@@H](O[C@@H]2[C@H](N)[C@H](O[C@@H]3O[C@H](CO)[C@@H](O)[C@H](O[C@@H]4O[C@@H](CO)[C@@H](O)[C@H](O)[C@H]4N)[C@H]3N)O[C@@H](CO[C@H]3O[C@@H](CO)[C@@H](O)[C@H](O)[C@H]3N)[C@H]2O[C@H]2O[C@@H](CO)[C@@H](O)[C@@H](O)[C@H]2N)O[C@H](CO)[C@H](O)[C@H]1O
REMARK SMILES IDX 33 1 47 2 5 3 6 4 8 5 32 6 34 7 35 8 36 9 38 10 41 11 37 12
REMARK SMILES IDX 43 13 45 14 39 15 40 16 42 18 44 20 46 22 48 25 49 26 58 27
REMARK SMILES IDX 50 28 56 29 51 30 54 31 59 32 57 35 52 37 53 38 55 40 4 42
REMARK SMILES IDX 3 43 2 44 60 45 66 46 61 47 64 48 1 49 67 52 62 54 63 55
REMARK SMILES IDX 65 57 9 59 10 60 30 61 11 62 17 63 12 64 15 65 31 66 18 69
REMARK SMILES IDX 19 70 28 71 20 72 26 73 21 74 24 75 29 76 27 79 22 81 23 82
REMARK SMILES IDX 25 84 13 86 14 87 16 89 7 91
REMARK H PARENT 40 17 42 19 44 21 46 23 46 24 59 33 59 34 57 36 53 39 55 41
REMARK H PARENT 1 50 1 51 67 53 63 56 65 58 31 67 31 68 29 77 29 78 27 80
REMARK H PARENT 23 83 25 85 14 88 16 90 7 92 7 93
ROOT
ATOM      1  C   UNL     1      -7.329  -8.928   8.174  1.00  0.00    +0.179 C 
ATOM      2  C   UNL     1      -7.613  -9.883   9.352  1.00  0.00    +0.183 C 
ATOM      3  C   UNL     1      -8.427  -9.181  10.458  1.00  0.00    +0.175 C 
ATOM      4  C   UNL     1      -9.685  -8.524   9.850  1.00  0.00    +0.140 C 
ATOM      5  C   UNL     1      -9.249  -7.574   8.698  1.00  0.00    +0.273 C 
ATOM      6  O   UNL     1      -8.533  -8.296   7.704  1.00  0.00    -0.342 OA
ENDROOT
BRANCH   1   7
ATOM      7  C   UNL     1      -6.215  -7.898   8.484  1.00  0.00    +0.198 C 
BRANCH   7   8
ATOM      8  O   UNL     1      -4.944  -8.358   8.013  1.00  0.00    -0.348 OA
BRANCH   8   9
ATOM      9  C   UNL     1      -3.853  -7.899   8.826  1.00  0.00    +0.270 C 
ATOM     10  C   UNL     1      -2.910  -8.033  11.047  1.00  0.00    +0.178 C 
ATOM     11  C   UNL     1      -1.769  -7.256  10.370  1.00  0.00    +0.176 C 
ATOM     12  O   UNL     1      -3.988  -8.372  10.164  1.00  0.00    -0.342 OA
ATOM     13  C   UNL     1      -1.322  -7.911   9.054  1.00  0.00    +0.167 C 
ATOM     14  C   UNL     1      -2.515  -8.387   8.193  1.00  0.00    +0.139 C 
BRANCH  10  15
ATOM     15  C   UNL     1      -2.469  -9.313  11.775  1.00  0.00    +0.191 C 
BRANCH  15  16
ATOM     16  O   UNL     1      -2.517 -10.452  10.919  1.00  0.00    -0.394 OA
ATOM     17  H   UNL     1      -3.447 -10.574  10.658  1.00  0.00    +0.210 HD
ENDBRANCH  15  16
ENDBRANCH  10  15
BRANCH  11  18
ATOM     18  O   UNL     1      -0.637  -7.055  11.225  1.00  0.00    -0.388 OA
ATOM     19  H   UNL     1      -0.916  -7.277  12.133  1.00  0.00    +0.211 HD
ENDBRANCH  11  18
BRANCH  13  20
ATOM     20  O   UNL     1      -0.548  -6.940   8.321  1.00  0.00    -0.388 OA
ATOM     21  H   UNL     1      -0.109  -6.400   9.007  1.00  0.00    +0.211 HD
ENDBRANCH  13  20
BRANCH  14  22
ATOM     22  N   UNL     1      -2.491  -9.876   8.061  1.00  0.00    -0.321 NA
ATOM     23  H   UNL     1      -3.167 -10.226   8.759  1.00  0.00    +0.119 HD
ATOM     24  H   UNL     1      -2.959 -10.095   7.164  1.00  0.00    +0.119 HD
ENDBRANCH  14  22
ENDBRANCH   8   9
ENDBRANCH   7   8
ENDBRANCH   1   7
BRANCH   2  25
ATOM     25  O   UNL     1      -6.373 -10.349   9.915  1.00  0.00    -0.342 OA
BRANCH  25  26
ATOM     26  C   UNL     1      -5.953 -11.597   9.351  1.00  0.00    +0.270 C 
ATOM     27  C   UNL     1      -6.767 -12.738  10.039  1.00  0.00    +0.139 C 
ATOM     28  O   UNL     1      -4.554 -11.789   9.547  1.00  0.00    -0.342 OA
ATOM     29  C   UNL     1      -6.313 -14.125   9.504  1.00  0.00    +0.167 C 
ATOM     30  C   UNL     1      -4.043 -13.055   9.109  1.00  0.00    +0.178 C 
ATOM     31  C   UNL     1      -5.120 -14.008   8.548  1.00  0.00    +0.176 C 
BRANCH  27  32
ATOM     32  N   UNL     1      -6.722 -12.626  11.521  1.00  0.00    -0.321 NA
ATOM     33  H   UNL     1      -5.959 -13.229  11.849  1.00  0.00    +0.119 HD
ATOM     34  H   UNL     1      -6.397 -11.680  11.734  1.00  0.00    +0.119 HD
ENDBRANCH  27  32
BRANCH  29  35
ATOM     35  O   UNL     1      -5.953 -15.052  10.549  1.00  0.00    -0.388 OA
ATOM     36  H   UNL     1      -5.081 -14.736  10.870  1.00  0.00    +0.211 HD
ENDBRANCH  29  35
BRANCH  30  37
ATOM     37  C   UNL     1      -3.168 -13.644  10.234  1.00  0.00    +0.191 C 
BRANCH  37  38
ATOM     38  O   UNL     1      -3.564 -13.248  11.545  1.00  0.00    -0.394 OA
ATOM     39  H   UNL     1      -4.139 -12.455  11.448  1.00  0.00    +0.210 HD
ENDBRANCH  37  38
ENDBRANCH  30  37
BRANCH  31  40
ATOM     40  O   UNL     1      -4.609 -15.314   8.262  1.00  0.00    -0.388 OA
ATOM     41  H   UNL     1      -4.324 -15.326   7.329  1.00  0.00    +0.211 HD
ENDBRANCH  31  40
ENDBRANCH  25  26
ENDBRANCH   2  25
BRANCH   3  42
ATOM     42  O   UNL     1      -8.726 -10.159  11.478  1.00  0.00    -0.343 OA
BRANCH  42  43
ATOM     43  C   UNL     1      -8.705  -9.646  12.815  1.00  0.00    +0.270 C 
ATOM     44  C   UNL     1      -7.475 -10.271  13.525  1.00  0.00    +0.139 C 
ATOM     45  O   UNL     1      -9.936 -10.001  13.451  1.00  0.00    -0.342 OA
ATOM     46  C   UNL     1      -7.511  -9.990  15.035  1.00  0.00    +0.167 C 
ATOM     47  C   UNL     1     -10.009  -9.692  14.847  1.00  0.00    +0.178 C 
ATOM     48  C   UNL     1      -8.870 -10.383  15.618  1.00  0.00    +0.176 C 
BRANCH  44  49
ATOM     49  N   UNL     1      -6.199  -9.780  12.950  1.00  0.00    -0.321 NA
ATOM     50  H   UNL     1      -5.607 -10.587  12.755  1.00  0.00    +0.119 HD
ATOM     51  H   UNL     1      -5.729  -9.238  13.683  1.00  0.00    +0.119 HD
ENDBRANCH  44  49
BRANCH  46  52
ATOM     52  O   UNL     1      -6.478 -10.746  15.694  1.00  0.00    -0.388 OA
ATOM     53  H   UNL     1      -5.793 -10.088  15.927  1.00  0.00    +0.211 HD
ENDBRANCH  46  52
BRANCH  47  54
ATOM     54  C   UNL     1     -10.127  -8.175  15.089  1.00  0.00    +0.191 C 
BRANCH  54  55
ATOM     55  O   UNL     1     -10.992  -7.580  14.127  1.00  0.00    -0.394 OA
ATOM     56  H   UNL     1     -11.908  -7.751  14.422  1.00  0.00    +0.210 HD
ENDBRANCH  54  55
ENDBRANCH  47  54
BRANCH  48  57
ATOM     57  O   UNL     1      -8.864 -10.116  17.025  1.00  0.00    -0.388 OA
ATOM     58  H   UNL     1      -9.751 -10.355  17.378  1.00  0.00    +0.211 HD
ENDBRANCH  48  57
ENDBRANCH  42  43
ENDBRANCH   3  42
BRANCH   5  59
ATOM     59  O   UNL     1     -10.430  -6.995   8.139  1.00  0.00    -0.320 OA
BRANCH  59  60
ATOM     60  C   UNL     1     -10.643  -5.633   8.511  1.00  0.00    +0.273 C 
ATOM     61  C   UNL     1      -9.899  -5.274   9.830  1.00  0.00    +0.140 C 
ATOM     62  O   UNL     1     -10.129  -4.860   7.416  1.00  0.00    -0.342 OA
ATOM     63  C   UNL     1      -9.979  -3.751  10.066  1.00  0.00    +0.174 C 
ATOM     64  C   UNL     1     -10.284  -3.444   7.604  1.00  0.00    +0.178 C 
ATOM     65  C   UNL     1      -9.502  -2.977   8.832  1.00  0.00    +0.176 C 
BRANCH  61  66
ATOM     66  N   UNL     1     -10.433  -5.973  11.016  1.00  0.00    -0.321 NA
ATOM     67  H   UNL     1     -11.249  -5.453  11.365  1.00  0.00    +0.119 HD
ATOM     68  H   UNL     1      -9.733  -5.916  11.771  1.00  0.00    +0.119 HD
ENDBRANCH  61  66
BRANCH  63  69
ATOM     69  O   UNL     1      -9.123  -3.366  11.161  1.00  0.00    -0.343 OA
BRANCH  69  70
ATOM     70  C   UNL     1      -7.736  -3.444  10.824  1.00  0.00    +0.270 C 
ATOM     71  C   UNL     1      -6.970  -2.293  11.543  1.00  0.00    +0.139 C 
ATOM     72  O   UNL     1      -7.261  -4.756  11.163  1.00  0.00    -0.342 OA
ATOM     73  C   UNL     1      -5.533  -2.768  11.783  1.00  0.00    +0.167 C 
ATOM     74  C   UNL     1      -6.801  -4.854  12.520  1.00  0.00    +0.178 C 
ATOM     75  C   UNL     1      -5.529  -3.992  12.715  1.00  0.00    +0.176 C 
BRANCH  71  76
ATOM     76  N   UNL     1      -7.007  -1.005  10.803  1.00  0.00    -0.321 NA
ATOM     77  H   UNL     1      -6.209  -1.029  10.158  1.00  0.00    +0.119 HD
ATOM     78  H   UNL     1      -7.825  -1.022  10.173  1.00  0.00    +0.119 HD
ENDBRANCH  71  76
BRANCH  73  79
ATOM     79  O   UNL     1      -4.741  -1.721  12.370  1.00  0.00    -0.388 OA
ATOM     80  H   UNL     1      -4.068  -2.185  12.905  1.00  0.00    +0.211 HD
ENDBRANCH  73  79
BRANCH  74  81
ATOM     81  C   UNL     1      -6.614  -6.339  12.859  1.00  0.00    +0.191 C 
BRANCH  81  82
ATOM     82  O   UNL     1      -6.000  -7.039  11.773  1.00  0.00    -0.394 OA
ATOM     83  H   UNL     1      -5.297  -7.593  12.158  1.00  0.00    +0.210 HD
ENDBRANCH  81  82
ENDBRANCH  74  81
BRANCH  75  84
ATOM     84  O   UNL     1      -4.287  -4.674  12.494  1.00  0.00    -0.388 OA
ATOM     85  H   UNL     1      -3.956  -4.392  11.612  1.00  0.00    +0.211 HD
ENDBRANCH  75  84
ENDBRANCH  69  70
ENDBRANCH  63  69
BRANCH  64  86
ATOM     86  C   UNL     1      -9.786  -2.760   6.328  1.00  0.00    +0.191 C 
BRANCH  86  87
ATOM     87  O   UNL     1      -9.671  -1.351   6.559  1.00  0.00    -0.394 OA
ATOM     88  H   UNL     1     -10.594  -1.034   6.611  1.00  0.00    +0.210 HD
ENDBRANCH  86  87
ENDBRANCH  64  86
BRANCH  65  89
ATOM     89  O   UNL     1      -9.693  -1.574   9.049  1.00  0.00    -0.388 OA
ATOM     90  H   UNL     1      -8.868  -1.257   9.470  1.00  0.00    +0.211 HD
ENDBRANCH  65  89
ENDBRANCH  59  60
ENDBRANCH   5  59
BRANCH   4  91
ATOM     91  N   UNL     1     -10.659  -9.552   9.406  1.00  0.00    -0.321 NA
ATOM     92  H   UNL     1     -10.138 -10.411   9.212  1.00  0.00    +0.119 HD
ATOM     93  H   UNL     1     -11.066  -9.234   8.523  1.00  0.00    +0.119 HD
ENDBRANCH   4  91
TORSDOF 36
ENDMDL
MODEL 3
REMARK VINA RESULT:    -5.709     21.763     26.474
REMARK INTER + INTRA:         -22.196
REMARK INTER:                 -15.811
REMARK INTRA:                  -6.385
REMARK UNBOUND:                -7.810
REMARK SMILES N[C@@H]1[C@@H](O[C@@H]2[C@H](N)[C@H](O[C@@H]3O[C@H](CO)[C@@H](O)[C@H](O[C@@H]4O[C@@H](CO)[C@@H](O)[C@H](O)[C@H]4N)[C@H]3N)O[C@@H](CO[C@H]3O[C@@H](CO)[C@@H](O)[C@H](O)[C@H]3N)[C@H]2O[C@H]2O[C@@H](CO)[C@@H](O)[C@@H](O)[C@H]2N)O[C@H](CO)[C@H](O)[C@H]1O
REMARK SMILES IDX 33 1 47 2 5 3 6 4 8 5 32 6 34 7 35 8 36 9 38 10 41 11 37 12
REMARK SMILES IDX 43 13 45 14 39 15 40 16 42 18 44 20 46 22 48 25 49 26 58 27
REMARK SMILES IDX 50 28 56 29 51 30 54 31 59 32 57 35 52 37 53 38 55 40 4 42
REMARK SMILES IDX 3 43 2 44 60 45 66 46 61 47 64 48 1 49 67 52 62 54 63 55
REMARK SMILES IDX 65 57 9 59 10 60 30 61 11 62 17 63 12 64 15 65 31 66 18 69
REMARK SMILES IDX 19 70 28 71 20 72 26 73 21 74 24 75 29 76 27 79 22 81 23 82
REMARK SMILES IDX 25 84 13 86 14 87 16 89 7 91
REMARK H PARENT 40 17 42 19 44 21 46 23 46 24 59 33 59 34 57 36 53 39 55 41
REMARK H PARENT 1 50 1 51 67 53 63 56 65 58 31 67 31 68 29 77 29 78 27 80
REMARK H PARENT 23 83 25 85 14 88 16 90 7 92 7 93
ROOT
ATOM      1  C   UNL     1      12.715  -8.124   0.850  1.00  0.00    +0.179 C 
ATOM      2  C   UNL     1      12.874  -9.184   1.960  1.00  0.00    +0.183 C 
ATOM      3  C   UNL     1      13.748  -8.657   3.116  1.00  0.00    +0.175 C 
ATOM      4  C   UNL     1      13.209  -7.296   3.606  1.00  0.00    +0.140 C 
ATOM      5  C   UNL     1      13.125  -6.324   2.395  1.00  0.00    +0.273 C 
ATOM      6  O   UNL     1      12.279  -6.860   1.385  1.00  0.00    -0.342 OA
ENDROOT
BRANCH   1   7
ATOM      7  C   UNL     1      13.978  -7.976  -0.033  1.00  0.00    +0.198 C 
BRANCH   7   8
ATOM      8  O   UNL     1      14.091  -6.647  -0.550  1.00  0.00    -0.348 OA
BRANCH   8   9
ATOM      9  C   UNL     1      15.446  -6.173  -0.568  1.00  0.00    +0.270 C 
ATOM     10  C   UNL     1      17.746  -6.894  -0.392  1.00  0.00    +0.178 C 
ATOM     11  C   UNL     1      18.003  -5.426  -0.774  1.00  0.00    +0.176 C 
ATOM     12  O   UNL     1      16.357  -7.242  -0.322  1.00  0.00    -0.342 OA
ATOM     13  C   UNL     1      17.184  -4.993  -1.998  1.00  0.00    +0.167 C 
ATOM     14  C   UNL     1      15.727  -5.507  -1.949  1.00  0.00    +0.139 C 
BRANCH  10  15
ATOM     15  C   UNL     1      18.452  -7.922  -1.291  1.00  0.00    +0.191 C 
BRANCH  15  16
ATOM     16  O   UNL     1      17.534  -8.582  -2.160  1.00  0.00    -0.394 OA
ATOM     17  H   UNL     1      16.652  -8.210  -1.978  1.00  0.00    +0.210 HD
ENDBRANCH  15  16
ENDBRANCH  10  15
BRANCH  11  18
ATOM     18  O   UNL     1      19.390  -5.132  -0.984  1.00  0.00    -0.388 OA
ATOM     19  H   UNL     1      19.475  -4.163  -1.048  1.00  0.00    +0.211 HD
ENDBRANCH  11  18
BRANCH  13  20
ATOM     20  O   UNL     1      17.193  -3.552  -2.045  1.00  0.00    -0.388 OA
ATOM     21  H   UNL     1      17.505  -3.332  -2.943  1.00  0.00    +0.211 HD
ENDBRANCH  13  20
BRANCH  14  22
ATOM     22  N   UNL     1      15.482  -6.464  -3.071  1.00  0.00    -0.321 NA
ATOM     23  H   UNL     1      16.418  -6.750  -3.399  1.00  0.00    +0.119 HD
ATOM     24  H   UNL     1      15.119  -7.332  -2.638  1.00  0.00    +0.119 HD
ENDBRANCH  14  22
ENDBRANCH   8   9
ENDBRANCH   7   8
ENDBRANCH   1   7
BRANCH   2  25
ATOM     25  O   UNL     1      13.486 -10.369   1.420  1.00  0.00    -0.342 OA
BRANCH  25  26
ATOM     26  C   UNL     1      12.736 -11.554   1.718  1.00  0.00    +0.270 C 
ATOM     27  C   UNL     1      12.617 -12.394   0.407  1.00  0.00    +0.139 C 
ATOM     28  O   UNL     1      11.444 -11.214   2.216  1.00  0.00    -0.342 OA
ATOM     29  C   UNL     1      11.763 -13.668   0.657  1.00  0.00    +0.167 C 
ATOM     30  C   UNL     1      10.569 -12.325   2.453  1.00  0.00    +0.178 C 
ATOM     31  C   UNL     1      11.172 -13.694   2.072  1.00  0.00    +0.176 C 
BRANCH  27  32
ATOM     32  N   UNL     1      12.138 -11.568  -0.732  1.00  0.00    -0.321 NA
ATOM     33  H   UNL     1      12.517 -11.984  -1.590  1.00  0.00    +0.119 HD
ATOM     34  H   UNL     1      11.130 -11.727  -0.806  1.00  0.00    +0.119 HD
ENDBRANCH  27  32
BRANCH  29  35
ATOM     35  O   UNL     1      10.676 -13.821  -0.279  1.00  0.00    -0.388 OA
ATOM     36  H   UNL     1      10.077 -13.068  -0.086  1.00  0.00    +0.211 HD
ENDBRANCH  29  35
BRANCH  30  37
ATOM     37  C   UNL     1       9.199 -12.012   1.816  1.00  0.00    +0.191 C 
BRANCH  37  38
ATOM     38  O   UNL     1       9.282 -11.301   0.583  1.00  0.00    -0.394 OA
ATOM     39  H   UNL     1      10.123 -11.570   0.148  1.00  0.00    +0.210 HD
ENDBRANCH  37  38
ENDBRANCH  30  37
BRANCH  31  40
ATOM     40  O   UNL     1      10.227 -14.764   2.174  1.00  0.00    -0.388 OA
ATOM     41  H   UNL     1       9.460 -14.437   2.681  1.00  0.00    +0.211 HD
ENDBRANCH  31  40
ENDBRANCH  25  26
ENDBRANCH   2  25
BRANCH   3  42
ATOM     42  O   UNL     1      13.775  -9.668   4.148  1.00  0.00    -0.343 OA
BRANCH  42  43
ATOM     43  C   UNL     1      14.857  -9.537   5.077  1.00  0.00    +0.270 C 
ATOM     44  C   UNL     1      15.668 -10.859   5.024  1.00  0.00    +0.139 C 
ATOM     45  O   UNL     1      14.308  -9.290   6.374  1.00  0.00    -0.342 OA
ATOM     46  C   UNL     1      16.692 -10.922   6.167  1.00  0.00    +0.167 C 
ATOM     47  C   UNL     1      15.258  -9.286   7.444  1.00  0.00    +0.178 C 
ATOM     48  C   UNL     1      16.015 -10.625   7.506  1.00  0.00    +0.176 C 
BRANCH  44  49
ATOM     49  N   UNL     1      16.355 -11.032   3.721  1.00  0.00    -0.321 NA
ATOM     50  H   UNL     1      16.030 -10.298   3.091  1.00  0.00    +0.119 HD
ATOM     51  H   UNL     1      16.032 -11.922   3.328  1.00  0.00    +0.119 HD
ENDBRANCH  44  49
BRANCH  46  52
ATOM     52  O   UNL     1      17.284 -12.233   6.217  1.00  0.00    -0.388 OA
ATOM     53  H   UNL     1      17.252 -12.561   5.296  1.00  0.00    +0.211 HD
ENDBRANCH  46  52
BRANCH  47  54
ATOM     54  C   UNL     1      16.157  -8.036   7.403  1.00  0.00    +0.191 C 
BRANCH  54  55
ATOM     55  O   UNL     1      15.407  -6.892   7.009  1.00  0.00    -0.394 OA
ATOM     56  H   UNL     1      14.499  -7.014   7.349  1.00  0.00    +0.210 HD
ENDBRANCH  54  55
ENDBRANCH  47  54
BRANCH  48  57
ATOM     57  O   UNL     1      16.995 -10.701   8.548  1.00  0.00    -0.388 OA
ATOM     58  H   UNL     1      17.750 -10.126   8.290  1.00  0.00    +0.211 HD
ENDBRANCH  48  57
ENDBRANCH  42  43
ENDBRANCH   3  42
BRANCH   5  59
ATOM     59  O   UNL     1      12.605  -5.079   2.869  1.00  0.00    -0.320 OA
BRANCH  59  60
ATOM     60  C   UNL     1      13.605  -4.162   3.316  1.00  0.00    +0.273 C 
ATOM     61  C   UNL     1      14.283  -4.648   4.631  1.00  0.00    +0.140 C 
ATOM     62  O   UNL     1      14.562  -4.100   2.249  1.00  0.00    -0.342 OA
ATOM     63  C   UNL     1      15.493  -3.745   4.947  1.00  0.00    +0.174 C 
ATOM     64  C   UNL     1      15.643  -3.192   2.514  1.00  0.00    +0.178 C 
ATOM     65  C   UNL     1      16.434  -3.644   3.742  1.00  0.00    +0.176 C 
BRANCH  61  66
ATOM     66  N   UNL     1      13.373  -4.658   5.794  1.00  0.00    -0.321 NA
ATOM     67  H   UNL     1      13.309  -5.620   6.153  1.00  0.00    +0.119 HD
ATOM     68  H   UNL     1      12.423  -4.428   5.467  1.00  0.00    +0.119 HD
ENDBRANCH  61  66
BRANCH  63  69
ATOM     69  O   UNL     1      16.261  -4.297   6.036  1.00  0.00    -0.343 OA
BRANCH  69  70
ATOM     70  C   UNL     1      16.369  -3.396   7.141  1.00  0.00    +0.270 C 
ATOM     71  C   UNL     1      16.494  -4.216   8.459  1.00  0.00    +0.139 C 
ATOM     72  O   UNL     1      17.476  -2.515   6.899  1.00  0.00    -0.342 OA
ATOM     73  C   UNL     1      17.294  -3.374   9.459  1.00  0.00    +0.167 C 
ATOM     74  C   UNL     1      18.726  -3.039   7.376  1.00  0.00    +0.178 C 
ATOM     75  C   UNL     1      18.714  -3.123   8.922  1.00  0.00    +0.176 C 
BRANCH  71  76
ATOM     76  N   UNL     1      15.184  -4.639   9.020  1.00  0.00    -0.321 NA
ATOM     77  H   UNL     1      14.838  -5.377   8.396  1.00  0.00    +0.119 HD
ATOM     78  H   UNL     1      15.363  -5.137   9.906  1.00  0.00    +0.119 HD
ENDBRANCH  71  76
BRANCH  73  79
ATOM     79  O   UNL     1      17.377  -4.035  10.733  1.00  0.00    -0.388 OA
ATOM     80  H   UNL     1      16.637  -4.673  10.733  1.00  0.00    +0.211 HD
ENDBRANCH  73  79
BRANCH  74  81
ATOM     81  C   UNL     1      19.859  -2.179   6.800  1.00  0.00    +0.191 C 
BRANCH  81  82
ATOM     82  O   UNL     1      19.374  -1.314   5.769  1.00  0.00    -0.394 OA
ATOM     83  H   UNL     1      19.000  -1.886   5.075  1.00  0.00    +0.210 HD
ENDBRANCH  81  82
ENDBRANCH  74  81
BRANCH  75  84
ATOM     84  O   UNL     1      19.212  -1.962   9.602  1.00  0.00    -0.388 OA
ATOM     85  H   UNL     1      18.571  -1.234   9.436  1.00  0.00    +0.211 HD
ENDBRANCH  75  84
ENDBRANCH  69  70
ENDBRANCH  63  69
BRANCH  64  86
ATOM     86  C   UNL     1      16.523  -3.157   1.261  1.00  0.00    +0.191 C 
BRANCH  86  87
ATOM     87  O   UNL     1      15.891  -2.350   0.261  1.00  0.00    -0.394 OA
ATOM     88  H   UNL     1      16.581  -2.212  -0.418  1.00  0.00    +0.210 HD
ENDBRANCH  86  87
ENDBRANCH  64  86
BRANCH  65  89
ATOM     89  O   UNL     1      17.485  -2.715   4.035  1.00  0.00    -0.388 OA
ATOM     90  H   UNL     1      18.319  -3.188   3.840  1.00  0.00    +0.211 HD
ENDBRANCH  65  89
ENDBRANCH  59  60
ENDBRANCH   5  59
BRANCH   4  91
ATOM     91  N   UNL     1      11.907  -7.458   4.301  1.00  0.00    -0.321 NA
ATOM     92  H   UNL     1      11.954  -6.931   5.176  1.00  0.00    +0.119 HD
ATOM     93  H   UNL     1      11.805  -8.447   4.543  1.00  0.00    +0.119 HD
ENDBRANCH   4  91
TORSDOF 36
ENDMDL
MODEL 4
REMARK VINA RESULT:    -5.696     25.986     29.834
REMARK INTER + INTRA:         -22.163
REMARK INTER:                 -15.137
REMARK INTRA:                  -7.026
REMARK UNBOUND:                -7.810
REMARK SMILES N[C@@H]1[C@@H](O[C@@H]2[C@H](N)[C@H](O[C@@H]3O[C@H](CO)[C@@H](O)[C@H](O[C@@H]4O[C@@H](CO)[C@@H](O)[C@H](O)[C@H]4N)[C@H]3N)O[C@@H](CO[C@H]3O[C@@H](CO)[C@@H](O)[C@H](O)[C@H]3N)[C@H]2O[C@H]2O[C@@H](CO)[C@@H](O)[C@@H](O)[C@H]2N)O[C@H](CO)[C@H](O)[C@H]1O
REMARK SMILES IDX 33 1 47 2 5 3 6 4 8 5 32 6 34 7 35 8 36 9 38 10 41 11 37 12
REMARK SMILES IDX 43 13 45 14 39 15 40 16 42 18 44 20 46 22 48 25 49 26 58 27
REMARK SMILES IDX 50 28 56 29 51 30 54 31 59 32 57 35 52 37 53 38 55 40 4 42
REMARK SMILES IDX 3 43 2 44 60 45 66 46 61 47 64 48 1 49 67 52 62 54 63 55
REMARK SMILES IDX 65 57 9 59 10 60 30 61 11 62 17 63 12 64 15 65 31 66 18 69
REMARK SMILES IDX 19 70 28 71 20 72 26 73 21 74 24 75 29 76 27 79 22 81 23 82
REMARK SMILES IDX 25 84 13 86 14 87 16 89 7 91
REMARK H PARENT 40 17 42 19 44 21 46 23 46 24 59 33 59 34 57 36 53 39 55 41
REMARK H PARENT 1 50 1 51 67 53 63 56 65 58 31 67 31 68 29 77 29 78 27 80
REMARK H PARENT 23 83 25 85 14 88 16 90 7 92 7 93
ROOT
ATOM      1  C   UNL     1      -2.337 -15.741 -18.340  1.00  0.00    +0.179 C 
ATOM      2  C   UNL     1      -1.548 -16.759 -17.490  1.00  0.00    +0.183 C 
ATOM      3  C   UNL     1      -2.485 -17.560 -16.564  1.00  0.00    +0.175 C 
ATOM      4  C   UNL     1      -3.640 -18.172 -17.385  1.00  0.00    +0.140 C 
ATOM      5  C   UNL     1      -4.359 -17.036 -18.167  1.00  0.00    +0.273 C 
ATOM      6  O   UNL     1      -3.441 -16.365 -19.021  1.00  0.00    -0.342 OA
ENDROOT
BRANCH   1   7
ATOM      7  C   UNL     1      -2.780 -14.494 -17.537  1.00  0.00    +0.198 C 
BRANCH   7   8
ATOM      8  O   UNL     1      -3.394 -13.524 -18.391  1.00  0.00    -0.348 OA
BRANCH   8   9
ATOM      9  C   UNL     1      -2.888 -12.198 -18.177  1.00  0.00    +0.270 C 
ATOM     10  C   UNL     1      -0.917 -10.820 -18.422  1.00  0.00    +0.178 C 
ATOM     11  C   UNL     1      -1.904  -9.720 -17.995  1.00  0.00    +0.176 C 
ATOM     12  O   UNL     1      -1.508 -12.122 -18.527  1.00  0.00    -0.342 OA
ATOM     13  C   UNL     1      -3.204  -9.757 -18.812  1.00  0.00    +0.167 C 
ATOM     14  C   UNL     1      -3.733 -11.194 -19.019  1.00  0.00    +0.139 C 
BRANCH  10  15
ATOM     15  C   UNL     1      -0.163 -10.530 -19.730  1.00  0.00    +0.191 C 
BRANCH  15  16
ATOM     16  O   UNL     1       1.087  -9.890 -19.488  1.00  0.00    -0.394 OA
ATOM     17  H   UNL     1       1.234  -9.904 -18.525  1.00  0.00    +0.210 HD
ENDBRANCH  15  16
ENDBRANCH  10  15
BRANCH  11  18
ATOM     18  O   UNL     1      -1.336  -8.405 -18.038  1.00  0.00    -0.388 OA
ATOM     19  H   UNL     1      -0.455  -8.482 -18.447  1.00  0.00    +0.211 HD
ENDBRANCH  11  18
BRANCH  13  20
ATOM     20  O   UNL     1      -4.187  -8.971 -18.108  1.00  0.00    -0.388 OA
ATOM     21  H   UNL     1      -4.884  -8.793 -18.768  1.00  0.00    +0.211 HD
ENDBRANCH  13  20
BRANCH  14  22
ATOM     22  N   UNL     1      -3.703 -11.549 -20.471  1.00  0.00    -0.321 NA
ATOM     23  H   UNL     1      -4.156 -10.758 -20.957  1.00  0.00    +0.119 HD
ATOM     24  H   UNL     1      -2.715 -11.462 -20.771  1.00  0.00    +0.119 HD
ENDBRANCH  14  22
ENDBRANCH   8   9
ENDBRANCH   7   8
ENDBRANCH   1   7
BRANCH   2  25
ATOM     25  O   UNL     1      -0.575 -16.071 -16.682  1.00  0.00    -0.342 OA
BRANCH  25  26
ATOM     26  C   UNL     1       0.602 -15.726 -17.423  1.00  0.00    +0.270 C 
ATOM     27  C   UNL     1       1.844 -16.216 -16.616  1.00  0.00    +0.139 C 
ATOM     28  O   UNL     1       0.663 -14.317 -17.633  1.00  0.00    -0.342 OA
ATOM     29  C   UNL     1       3.157 -15.818 -17.348  1.00  0.00    +0.167 C 
ATOM     30  C   UNL     1       1.854 -13.847 -18.280  1.00  0.00    +0.178 C 
ATOM     31  C   UNL     1       2.884 -14.955 -18.585  1.00  0.00    +0.176 C 
BRANCH  27  32
ATOM     32  N   UNL     1       1.791 -15.767 -15.200  1.00  0.00    -0.321 NA
ATOM     33  H   UNL     1       0.904 -15.268 -15.072  1.00  0.00    +0.119 HD
ATOM     34  H   UNL     1       1.684 -16.609 -14.629  1.00  0.00    +0.119 HD
ENDBRANCH  27  32
BRANCH  29  35
ATOM     35  O   UNL     1       4.087 -15.104 -16.507  1.00  0.00    -0.388 OA
ATOM     36  H   UNL     1       4.669 -15.801 -16.136  1.00  0.00    +0.211 HD
ENDBRANCH  29  35
BRANCH  30  37
ATOM     37  C   UNL     1       2.401 -12.645 -17.482  1.00  0.00    +0.191 C 
BRANCH  37  38
ATOM     38  O   UNL     1       2.264 -12.777 -16.068  1.00  0.00    -0.394 OA
ATOM     39  H   UNL     1       2.882 -12.132 -15.655  1.00  0.00    +0.210 HD
ENDBRANCH  37  38
ENDBRANCH  30  37
BRANCH  31  40
ATOM     40  O   UNL     1       4.121 -14.440 -19.088  1.00  0.00    -0.388 OA
ATOM     41  H   UNL     1       4.099 -14.509 -20.061  1.00  0.00    +0.211 HD
ENDBRANCH  31  40
ENDBRANCH  25  26
ENDBRANCH   2  25
BRANCH   3  42
ATOM     42  O   UNL     1      -1.688 -18.545 -15.871  1.00  0.00    -0.343 OA
BRANCH  42  43
ATOM     43  C   UNL     1      -1.601 -18.348 -14.455  1.00  0.00    +0.270 C 
ATOM     44  C   UNL     1      -3.054 -18.264 -13.916  1.00  0.00    +0.139 C 
ATOM     45  O   UNL     1      -0.864 -17.146 -14.214  1.00  0.00    -0.342 OA
ATOM     46  C   UNL     1      -3.070 -17.795 -12.454  1.00  0.00    +0.167 C 
ATOM     47  C   UNL     1      -0.820 -16.726 -12.846  1.00  0.00    +0.178 C 
ATOM     48  C   UNL     1      -2.242 -16.519 -12.294  1.00  0.00    +0.176 C 
BRANCH  44  49
ATOM     49  N   UNL     1      -3.761 -19.562 -14.038  1.00  0.00    -0.321 NA
ATOM     50  H   UNL     1      -4.222 -19.589 -14.948  1.00  0.00    +0.119 HD
ATOM     51  H   UNL     1      -4.503 -19.566 -13.331  1.00  0.00    +0.119 HD
ENDBRANCH  44  49
BRANCH  46  52
ATOM     52  O   UNL     1      -4.425 -17.532 -12.044  1.00  0.00    -0.388 OA
ATOM     53  H   UNL     1      -4.977 -17.803 -12.805  1.00  0.00    +0.211 HD
ENDBRANCH  46  52
BRANCH  47  54
ATOM     54  C   UNL     1       0.077 -17.645 -11.997  1.00  0.00    +0.191 C 
BRANCH  54  55
ATOM     55  O   UNL     1       1.443 -17.502 -12.375  1.00  0.00    -0.394 OA
ATOM     56  H   UNL     1       1.789 -16.720 -11.901  1.00  0.00    +0.210 HD
ENDBRANCH  54  55
ENDBRANCH  47  54
BRANCH  48  57
ATOM     57  O   UNL     1      -2.287 -16.105 -10.923  1.00  0.00    -0.388 OA
ATOM     58  H   UNL     1      -3.232 -16.074 -10.652  1.00  0.00    +0.211 HD
ENDBRANCH  48  57
ENDBRANCH  42  43
ENDBRANCH   3  42
BRANCH   5  59
ATOM     59  O   UNL     1      -5.409 -17.630 -18.934  1.00  0.00    -0.320 OA
BRANCH  59  60
ATOM     60  C   UNL     1      -6.566 -16.805 -19.076  1.00  0.00    +0.273 C 
ATOM     61  C   UNL     1      -6.712 -15.812 -17.885  1.00  0.00    +0.140 C 
ATOM     62  O   UNL     1      -6.370 -16.091 -20.306  1.00  0.00    -0.342 OA
ATOM     63  C   UNL     1      -7.840 -14.805 -18.194  1.00  0.00    +0.174 C 
ATOM     64  C   UNL     1      -7.464 -15.218 -20.630  1.00  0.00    +0.178 C 
ATOM     65  C   UNL     1      -7.626 -14.140 -19.558  1.00  0.00    +0.176 C 
BRANCH  61  66
ATOM     66  N   UNL     1      -6.998 -16.475 -16.597  1.00  0.00    -0.321 NA
ATOM     67  H   UNL     1      -6.689 -15.857 -15.834  1.00  0.00    +0.119 HD
ATOM     68  H   UNL     1      -6.404 -17.314 -16.523  1.00  0.00    +0.119 HD
ENDBRANCH  61  66
BRANCH  63  69
ATOM     69  O   UNL     1      -7.855 -13.750 -17.210  1.00  0.00    -0.343 OA
BRANCH  69  70
ATOM     70  C   UNL     1      -6.588 -13.098 -17.087  1.00  0.00    +0.270 C 
ATOM     71  C   UNL     1      -6.816 -11.603 -16.716  1.00  0.00    +0.139 C 
ATOM     72  O   UNL     1      -5.800 -13.820 -16.129  1.00  0.00    -0.342 OA
ATOM     73  C   UNL     1      -5.599 -11.129 -15.915  1.00  0.00    +0.167 C 
ATOM     74  C   UNL     1      -6.011 -13.375 -14.779  1.00  0.00    +0.178 C 
ATOM     75  C   UNL     1      -5.483 -11.929 -14.606  1.00  0.00    +0.176 C 
BRANCH  71  76
ATOM     76  N   UNL     1      -7.073 -10.733 -17.894  1.00  0.00    -0.321 NA
ATOM     77  H   UNL     1      -6.817 -11.292 -18.715  1.00  0.00    +0.119 HD
ATOM     78  H   UNL     1      -8.094 -10.619 -17.989  1.00  0.00    +0.119 HD
ENDBRANCH  71  76
BRANCH  73  79
ATOM     79  O   UNL     1      -5.702  -9.728 -15.610  1.00  0.00    -0.388 OA
ATOM     80  H   UNL     1      -6.661  -9.552 -15.559  1.00  0.00    +0.211 HD
ENDBRANCH  73  79
BRANCH  74  81
ATOM     81  C   UNL     1      -5.371 -14.397 -13.830  1.00  0.00    +0.191 C 
BRANCH  81  82
ATOM     82  O   UNL     1      -5.910 -15.705 -14.046  1.00  0.00    -0.394 OA
ATOM     83  H   UNL     1      -5.155 -16.319 -14.072  1.00  0.00    +0.210 HD
ENDBRANCH  81  82
ENDBRANCH  74  81
BRANCH  75  84
ATOM     84  O   UNL     1      -4.119 -11.822 -14.177  1.00  0.00    -0.388 OA
ATOM     85  H   UNL     1      -3.840 -10.892 -14.331  1.00  0.00    +0.211 HD
ENDBRANCH  75  84
ENDBRANCH  69  70
ENDBRANCH  63  69
BRANCH  64  86
ATOM     86  C   UNL     1      -7.163 -14.606 -22.001  1.00  0.00    +0.191 C 
BRANCH  86  87
ATOM     87  O   UNL     1      -8.395 -14.323 -22.674  1.00  0.00    -0.394 OA
ATOM     88  H   UNL     1      -9.039 -14.163 -21.955  1.00  0.00    +0.210 HD
ENDBRANCH  86  87
ENDBRANCH  64  86
BRANCH  65  89
ATOM     89  O   UNL     1      -8.745 -13.296 -19.856  1.00  0.00    -0.388 OA
ATOM     90  H   UNL     1      -9.402 -13.874 -20.295  1.00  0.00    +0.211 HD
ENDBRANCH  65  89
ENDBRANCH  59  60
ENDBRANCH   5  59
BRANCH   4  91
ATOM     91  N   UNL     1      -3.145 -19.254 -18.273  1.00  0.00    -0.321 NA
ATOM     92  H   UNL     1      -2.805 -20.013 -17.679  1.00  0.00    +0.119 HD
ATOM     93  H   UNL     1      -2.344 -18.887 -18.793  1.00  0.00    +0.119 HD
ENDBRANCH   4  91
TORSDOF 36
ENDMDL
MODEL 5
REMARK VINA RESULT:    -5.670      2.928      8.501
REMARK INTER + INTRA:         -22.099
REMARK INTER:                 -15.602
REMARK INTRA:                  -6.497
REMARK UNBOUND:                -7.810
REMARK SMILES N[C@@H]1[C@@H](O[C@@H]2[C@H](N)[C@H](O[C@@H]3O[C@H](CO)[C@@H](O)[C@H](O[C@@H]4O[C@@H](CO)[C@@H](O)[C@H](O)[C@H]4N)[C@H]3N)O[C@@H](CO[C@H]3O[C@@H](CO)[C@@H](O)[C@H](O)[C@H]3N)[C@H]2O[C@H]2O[C@@H](CO)[C@@H](O)[C@@H](O)[C@H]2N)O[C@H](CO)[C@H](O)[C@H]1O
REMARK SMILES IDX 33 1 47 2 5 3 6 4 8 5 32 6 34 7 35 8 36 9 38 10 41 11 37 12
REMARK SMILES IDX 43 13 45 14 39 15 40 16 42 18 44 20 46 22 48 25 49 26 58 27
REMARK SMILES IDX 50 28 56 29 51 30 54 31 59 32 57 35 52 37 53 38 55 40 4 42
REMARK SMILES IDX 3 43 2 44 60 45 66 46 61 47 64 48 1 49 67 52 62 54 63 55
REMARK SMILES IDX 65 57 9 59 10 60 30 61 11 62 17 63 12 64 15 65 31 66 18 69
REMARK SMILES IDX 19 70 28 71 20 72 26 73 21 74 24 75 29 76 27 79 22 81 23 82
REMARK SMILES IDX 25 84 13 86 14 87 16 89 7 91
REMARK H PARENT 40 17 42 19 44 21 46 23 46 24 59 33 59 34 57 36 53 39 55 41
REMARK H PARENT 1 50 1 51 67 53 63 56 65 58 31 67 31 68 29 77 29 78 27 80
REMARK H PARENT 23 83 25 85 14 88 16 90 7 92 7 93
ROOT
ATOM      1  C   UNL     1      -9.370  -8.827   9.943  1.00  0.00    +0.179 C 
ATOM      2  C   UNL     1      -8.216  -7.803   9.923  1.00  0.00    +0.183 C 
ATOM      3  C   UNL     1      -6.848  -8.499  10.076  1.00  0.00    +0.175 C 
ATOM      4  C   UNL     1      -6.715  -9.633   9.037  1.00  0.00    +0.140 C 
ATOM      5  C   UNL     1      -7.925 -10.598   9.188  1.00  0.00    +0.273 C 
ATOM      6  O   UNL     1      -9.147  -9.894   9.002  1.00  0.00    -0.342 OA
ENDROOT
BRANCH   1   7
ATOM      7  C   UNL     1      -9.684  -9.360  11.362  1.00  0.00    +0.198 C 
BRANCH   7   8
ATOM      8  O   UNL     1      -9.948  -8.284  12.268  1.00  0.00    -0.348 OA
BRANCH   8   9
ATOM      9  C   UNL     1      -9.767  -8.660  13.642  1.00  0.00    +0.270 C 
ATOM     10  C   UNL     1      -8.777 -10.338  15.071  1.00  0.00    +0.178 C 
ATOM     11  C   UNL     1      -9.216  -9.349  16.164  1.00  0.00    +0.176 C 
ATOM     12  O   UNL     1      -9.076  -9.903  13.738  1.00  0.00    -0.342 OA
ATOM     13  C   UNL     1      -8.772  -7.911  15.857  1.00  0.00    +0.167 C 
ATOM     14  C   UNL     1      -8.985  -7.528  14.375  1.00  0.00    +0.139 C 
BRANCH  10  15
ATOM     15  C   UNL     1      -7.291 -10.731  15.123  1.00  0.00    +0.191 C 
BRANCH  15  16
ATOM     16  O   UNL     1      -6.542 -10.103  14.085  1.00  0.00    -0.394 OA
ATOM     17  H   UNL     1      -7.132 -10.028  13.313  1.00  0.00    +0.210 HD
ENDBRANCH  15  16
ENDBRANCH  10  15
BRANCH  11  18
ATOM     18  O   UNL     1      -8.778  -9.726  17.476  1.00  0.00    -0.388 OA
ATOM     19  H   UNL     1      -8.026 -10.337  17.367  1.00  0.00    +0.211 HD
ENDBRANCH  11  18
BRANCH  13  20
ATOM     20  O   UNL     1      -9.534  -7.027  16.704  1.00  0.00    -0.388 OA
ATOM     21  H   UNL     1      -9.426  -7.388  17.605  1.00  0.00    +0.211 HD
ENDBRANCH  13  20
BRANCH  14  22
ATOM     22  N   UNL     1      -7.669  -7.268  13.717  1.00  0.00    -0.321 NA
ATOM     23  H   UNL     1      -7.109  -6.752  14.415  1.00  0.00    +0.119 HD
ATOM     24  H   UNL     1      -7.183  -8.181  13.668  1.00  0.00    +0.119 HD
ENDBRANCH  14  22
ENDBRANCH   8   9
ENDBRANCH   7   8
ENDBRANCH   1   7
BRANCH   2  25
ATOM     25  O   UNL     1      -8.379  -6.861  10.999  1.00  0.00    -0.342 OA
BRANCH  25  26
ATOM     26  C   UNL     1      -8.519  -5.515  10.527  1.00  0.00    +0.270 C 
ATOM     27  C   UNL     1      -9.831  -4.923  11.131  1.00  0.00    +0.139 C 
ATOM     28  O   UNL     1      -8.565  -5.488   9.102  1.00  0.00    -0.342 OA
ATOM     29  C   UNL     1     -10.064  -3.478  10.607  1.00  0.00    +0.167 C 
ATOM     30  C   UNL     1      -8.804  -4.198   8.523  1.00  0.00    +0.178 C 
ATOM     31  C   UNL     1      -9.022  -3.074   9.557  1.00  0.00    +0.176 C 
BRANCH  27  32
ATOM     32  N   UNL     1     -10.990  -5.829  10.918  1.00  0.00    -0.321 NA
ATOM     33  H   UNL     1     -11.273  -6.182  11.839  1.00  0.00    +0.119 HD
ATOM     34  H   UNL     1     -11.774  -5.239  10.629  1.00  0.00    +0.119 HD
ENDBRANCH  27  32
BRANCH  29  35
ATOM     35  O   UNL     1     -11.372  -3.282  10.032  1.00  0.00    -0.388 OA
ATOM     36  H   UNL     1     -11.635  -2.382  10.319  1.00  0.00    +0.211 HD
ENDBRANCH  29  35
BRANCH  30  37
ATOM     37  C   UNL     1      -9.916  -4.338   7.462  1.00  0.00    +0.191 C 
BRANCH  37  38
ATOM     38  O   UNL     1     -10.903  -5.316   7.782  1.00  0.00    -0.394 OA
ATOM     39  H   UNL     1     -11.374  -5.538   6.947  1.00  0.00    +0.210 HD
ENDBRANCH  37  38
ENDBRANCH  30  37
BRANCH  31  40
ATOM     40  O   UNL     1      -9.410  -1.834   8.956  1.00  0.00    -0.388 OA
ATOM     41  H   UNL     1      -8.987  -1.113   9.460  1.00  0.00    +0.211 HD
ENDBRANCH  31  40
ENDBRANCH  25  26
ENDBRANCH   2  25
BRANCH   3  42
ATOM     42  O   UNL     1      -5.822  -7.489   9.959  1.00  0.00    -0.343 OA
BRANCH  42  43
ATOM     43  C   UNL     1      -4.505  -8.007   9.738  1.00  0.00    +0.270 C 
ATOM     44  C   UNL     1      -3.906  -8.344  11.130  1.00  0.00    +0.139 C 
ATOM     45  O   UNL     1      -3.742  -7.013   9.047  1.00  0.00    -0.342 OA
ATOM     46  C   UNL     1      -2.407  -8.660  11.021  1.00  0.00    +0.167 C 
ATOM     47  C   UNL     1      -2.353  -7.319   8.885  1.00  0.00    +0.178 C 
ATOM     48  C   UNL     1      -1.684  -7.553  10.251  1.00  0.00    +0.176 C 
BRANCH  44  49
ATOM     49  N   UNL     1      -4.615  -9.476  11.774  1.00  0.00    -0.321 NA
ATOM     50  H   UNL     1      -3.930 -10.204  11.981  1.00  0.00    +0.119 HD
ATOM     51  H   UNL     1      -5.256  -9.865  11.075  1.00  0.00    +0.119 HD
ENDBRANCH  44  49
BRANCH  46  52
ATOM     52  O   UNL     1      -1.837  -8.768  12.338  1.00  0.00    -0.388 OA
ATOM     53  H   UNL     1      -1.906  -9.717  12.567  1.00  0.00    +0.211 HD
ENDBRANCH  46  52
BRANCH  47  54
ATOM     54  C   UNL     1      -2.134  -8.444   7.856  1.00  0.00    +0.191 C 
BRANCH  54  55
ATOM     55  O   UNL     1      -0.794  -8.430   7.376  1.00  0.00    -0.394 OA
ATOM     56  H   UNL     1      -0.210  -8.524   8.154  1.00  0.00    +0.210 HD
ENDBRANCH  54  55
ENDBRANCH  47  54
BRANCH  48  57
ATOM     57  O   UNL     1      -0.290  -7.875  10.177  1.00  0.00    -0.388 OA
ATOM     58  H   UNL     1      -0.176  -8.789  10.522  1.00  0.00    +0.211 HD
ENDBRANCH  48  57
ENDBRANCH  42  43
ENDBRANCH   3  42
BRANCH   5  59
ATOM     59  O   UNL     1      -7.789 -11.625   8.203  1.00  0.00    -0.320 OA
BRANCH  59  60
ATOM     60  C   UNL     1      -7.636 -12.937   8.747  1.00  0.00    +0.273 C 
ATOM     61  C   UNL     1      -6.154 -13.236   9.118  1.00  0.00    +0.140 C 
ATOM     62  O   UNL     1      -8.463 -12.956   9.921  1.00  0.00    -0.342 OA
ATOM     63  C   UNL     1      -6.079 -14.566   9.898  1.00  0.00    +0.174 C 
ATOM     64  C   UNL     1      -8.455 -14.225  10.595  1.00  0.00    +0.178 C 
ATOM     65  C   UNL     1      -7.047 -14.563  11.086  1.00  0.00    +0.176 C 
BRANCH  61  66
ATOM     66  N   UNL     1      -5.258 -13.314   7.947  1.00  0.00    -0.321 NA
ATOM     67  H   UNL     1      -4.559 -12.562   8.017  1.00  0.00    +0.119 HD
ATOM     68  H   UNL     1      -5.807 -13.095   7.102  1.00  0.00    +0.119 HD
ENDBRANCH  61  66
BRANCH  63  69
ATOM     69  O   UNL     1      -4.755 -14.760  10.435  1.00  0.00    -0.343 OA
BRANCH  69  70
ATOM     70  C   UNL     1      -4.402 -13.761  11.395  1.00  0.00    +0.270 C 
ATOM     71  C   UNL     1      -3.661 -14.435  12.587  1.00  0.00    +0.139 C 
ATOM     72  O   UNL     1      -3.630 -12.749  10.730  1.00  0.00    -0.342 OA
ATOM     73  C   UNL     1      -2.704 -13.400  13.188  1.00  0.00    +0.167 C 
ATOM     74  C   UNL     1      -2.223 -13.038  10.710  1.00  0.00    +0.178 C 
ATOM     75  C   UNL     1      -1.648 -12.988  12.148  1.00  0.00    +0.176 C 
BRANCH  71  76
ATOM     76  N   UNL     1      -4.578 -14.998  13.612  1.00  0.00    -0.321 NA
ATOM     77  H   UNL     1      -4.029 -15.055  14.477  1.00  0.00    +0.119 HD
ATOM     78  H   UNL     1      -5.292 -14.284  13.827  1.00  0.00    +0.119 HD
ENDBRANCH  71  76
BRANCH  73  79
ATOM     79  O   UNL     1      -2.045 -13.929  14.351  1.00  0.00    -0.388 OA
ATOM     80  H   UNL     1      -2.435 -13.443  15.104  1.00  0.00    +0.211 HD
ENDBRANCH  73  79
BRANCH  74  81
ATOM     81  C   UNL     1      -1.547 -12.072   9.727  1.00  0.00    +0.191 C 
BRANCH  81  82
ATOM     82  O   UNL     1      -0.301 -12.602   9.263  1.00  0.00    -0.394 OA
ATOM     83  H   UNL     1      -0.494 -13.477   8.881  1.00  0.00    +0.210 HD
ENDBRANCH  81  82
ENDBRANCH  74  81
BRANCH  75  84
ATOM     84  O   UNL     1      -1.140 -11.712  12.560  1.00  0.00    -0.388 OA
ATOM     85  H   UNL     1      -1.049 -11.162  11.749  1.00  0.00    +0.211 HD
ENDBRANCH  75  84
ENDBRANCH  69  70
ENDBRANCH  63  69
BRANCH  64  86
ATOM     86  C   UNL     1      -9.446 -14.126  11.757  1.00  0.00    +0.191 C 
BRANCH  86  87
ATOM     87  O   UNL     1      -9.373 -12.817  12.333  1.00  0.00    -0.394 OA
ATOM     88  H   UNL     1      -8.707 -12.896  13.044  1.00  0.00    +0.210 HD
ENDBRANCH  86  87
ENDBRANCH  64  86
BRANCH  65  89
ATOM     89  O   UNL     1      -7.028 -15.849  11.717  1.00  0.00    -0.388 OA
ATOM     90  H   UNL     1      -7.626 -15.773  12.489  1.00  0.00    +0.211 HD
ENDBRANCH  65  89
ENDBRANCH  59  60
ENDBRANCH   5  59
BRANCH   4  91
ATOM     91  N   UNL     1      -6.588  -9.083   7.664  1.00  0.00    -0.321 NA
ATOM     92  H   UNL     1      -5.754  -8.492   7.642  1.00  0.00    +0.119 HD
ATOM     93  H   UNL     1      -7.397  -8.480   7.495  1.00  0.00    +0.119 HD
ENDBRANCH   4  91
TORSDOF 36
ENDMDL
MODEL 6
REMARK VINA RESULT:    -5.604      2.641      5.464
REMARK INTER + INTRA:         -21.931
REMARK INTER:                 -14.473
REMARK INTRA:                  -7.458
REMARK UNBOUND:                -7.810
REMARK SMILES N[C@@H]1[C@@H](O[C@@H]2[C@H](N)[C@H](O[C@@H]3O[C@H](CO)[C@@H](O)[C@H](O[C@@H]4O[C@@H](CO)[C@@H](O)[C@H](O)[C@H]4N)[C@H]3N)O[C@@H](CO[C@H]3O[C@@H](CO)[C@@H](O)[C@H](O)[C@H]3N)[C@H]2O[C@H]2O[C@@H](CO)[C@@H](O)[C@@H](O)[C@H]2N)O[C@H](CO)[C@H](O)[C@H]1O
REMARK SMILES IDX 33 1 47 2 5 3 6 4 8 5 32 6 34 7 35 8 36 9 38 10 41 11 37 12
REMARK SMILES IDX 43 13 45 14 39 15 40 16 42 18 44 20 46 22 48 25 49 26 58 27
REMARK SMILES IDX 50 28 56 29 51 30 54 31 59 32 57 35 52 37 53 38 55 40 4 42
REMARK SMILES IDX 3 43 2 44 60 45 66 46 61 47 64 48 1 49 67 52 62 54 63 55
REMARK SMILES IDX 65 57 9 59 10 60 30 61 11 62 17 63 12 64 15 65 31 66 18 69
REMARK SMILES IDX 19 70 28 71 20 72 26 73 21 74 24 75 29 76 27 79 22 81 23 82
REMARK SMILES IDX 25 84 13 86 14 87 16 89 7 91
REMARK H PARENT 40 17 42 19 44 21 46 23 46 24 59 33 59 34 57 36 53 39 55 41
REMARK H PARENT 1 50 1 51 67 53 63 56 65 58 31 67 31 68 29 77 29 78 27 80
REMARK H PARENT 23 83 25 85 14 88 16 90 7 92 7 93
ROOT
ATOM      1  C   UNL     1      -7.330  -9.302   8.564  1.00  0.00    +0.179 C 
ATOM      2  C   UNL     1      -8.137 -10.181   9.542  1.00  0.00    +0.183 C 
ATOM      3  C   UNL     1      -9.074  -9.327  10.420  1.00  0.00    +0.175 C 
ATOM      4  C   UNL     1      -9.934  -8.405   9.530  1.00  0.00    +0.140 C 
ATOM      5  C   UNL     1      -8.995  -7.564   8.619  1.00  0.00    +0.273 C 
ATOM      6  O   UNL     1      -8.186  -8.417   7.819  1.00  0.00    -0.342 OA
ENDROOT
BRANCH   1   7
ATOM      7  C   UNL     1      -6.167  -8.543   9.249  1.00  0.00    +0.198 C 
BRANCH   7   8
ATOM      8  O   UNL     1      -4.999  -8.538   8.422  1.00  0.00    -0.348 OA
BRANCH   8   9
ATOM      9  C   UNL     1      -3.825  -8.100   9.123  1.00  0.00    +0.270 C 
ATOM     10  C   UNL     1      -2.643  -8.297  11.222  1.00  0.00    +0.178 C 
ATOM     11  C   UNL     1      -1.584  -7.497  10.446  1.00  0.00    +0.176 C 
ATOM     12  O   UNL     1      -3.812  -8.613  10.453  1.00  0.00    -0.342 OA
ATOM     13  C   UNL     1      -1.285  -8.111   9.071  1.00  0.00    +0.167 C 
ATOM     14  C   UNL     1      -2.564  -8.565   8.332  1.00  0.00    +0.139 C 
BRANCH  10  15
ATOM     15  C   UNL     1      -2.125  -9.597  11.858  1.00  0.00    +0.191 C 
BRANCH  15  16
ATOM     16  O   UNL     1      -1.416  -9.346  13.069  1.00  0.00    -0.394 OA
ATOM     17  H   UNL     1      -1.158  -8.407  13.059  1.00  0.00    +0.210 HD
ENDBRANCH  15  16
ENDBRANCH  10  15
BRANCH  11  18
ATOM     18  O   UNL     1      -0.364  -7.317  11.178  1.00  0.00    -0.388 OA
ATOM     19  H   UNL     1       0.285  -7.949  10.819  1.00  0.00    +0.211 HD
ENDBRANCH  11  18
BRANCH  13  20
ATOM     20  O   UNL     1      -0.595  -7.116   8.287  1.00  0.00    -0.388 OA
ATOM     21  H   UNL     1       0.353  -7.310   8.412  1.00  0.00    +0.211 HD
ENDBRANCH  13  20
BRANCH  14  22
ATOM     22  N   UNL     1      -2.556 -10.048   8.154  1.00  0.00    -0.321 NA
ATOM     23  H   UNL     1      -3.506 -10.362   8.407  1.00  0.00    +0.119 HD
ATOM     24  H   UNL     1      -2.527 -10.218   7.133  1.00  0.00    +0.119 HD
ENDBRANCH  14  22
ENDBRANCH   8   9
ENDBRANCH   7   8
ENDBRANCH   1   7
BRANCH   2  25
ATOM     25  O   UNL     1      -7.239 -10.912  10.398  1.00  0.00    -0.342 OA
BRANCH  25  26
ATOM     26  C   UNL     1      -7.196 -12.308  10.076  1.00  0.00    +0.270 C 
ATOM     27  C   UNL     1      -5.701 -12.716   9.890  1.00  0.00    +0.139 C 
ATOM     28  O   UNL     1      -7.941 -12.569   8.889  1.00  0.00    -0.342 OA
ATOM     29  C   UNL     1      -5.596 -14.213   9.484  1.00  0.00    +0.167 C 
ATOM     30  C   UNL     1      -7.883 -13.923   8.418  1.00  0.00    +0.178 C 
ATOM     31  C   UNL     1      -6.975 -14.844   9.259  1.00  0.00    +0.176 C 
BRANCH  27  32
ATOM     32  N   UNL     1      -4.993 -11.795   8.962  1.00  0.00    -0.321 NA
ATOM     33  H   UNL     1      -4.331 -12.360   8.419  1.00  0.00    +0.119 HD
ATOM     34  H   UNL     1      -5.681 -11.488   8.271  1.00  0.00    +0.119 HD
ENDBRANCH  27  32
BRANCH  29  35
ATOM     35  O   UNL     1      -4.811 -14.429   8.293  1.00  0.00    -0.388 OA
ATOM     36  H   UNL     1      -4.344 -13.579   8.148  1.00  0.00    +0.211 HD
ENDBRANCH  29  35
BRANCH  30  37
ATOM     37  C   UNL     1      -7.574 -13.900   6.906  1.00  0.00    +0.191 C 
BRANCH  37  38
ATOM     38  O   UNL     1      -6.703 -12.843   6.508  1.00  0.00    -0.394 OA
ATOM     39  H   UNL     1      -5.806 -13.062   6.849  1.00  0.00    +0.210 HD
ENDBRANCH  37  38
ENDBRANCH  30  37
BRANCH  31  40
ATOM     40  O   UNL     1      -6.815 -16.143   8.680  1.00  0.00    -0.388 OA
ATOM     41  H   UNL     1      -6.033 -16.115   8.097  1.00  0.00    +0.211 HD
ENDBRANCH  31  40
ENDBRANCH  25  26
ENDBRANCH   2  25
BRANCH   3  42
ATOM     42  O   UNL     1      -9.853 -10.224  11.241  1.00  0.00    -0.343 OA
BRANCH  42  43
ATOM     43  C   UNL     1     -10.123  -9.736  12.560  1.00  0.00    +0.270 C 
ATOM     44  C   UNL     1     -11.661  -9.570  12.680  1.00  0.00    +0.139 C 
ATOM     45  O   UNL     1      -9.430  -8.496  12.731  1.00  0.00    -0.342 OA
ATOM     46  C   UNL     1     -12.033  -8.809  13.961  1.00  0.00    +0.167 C 
ATOM     47  C   UNL     1      -9.721  -7.801  13.948  1.00  0.00    +0.178 C 
ATOM     48  C   UNL     1     -11.228  -7.512  14.063  1.00  0.00    +0.176 C 
BRANCH  44  49
ATOM     49  N   UNL     1     -12.359 -10.879  12.650  1.00  0.00    -0.321 NA
ATOM     50  H   UNL     1     -11.679 -11.607  12.870  1.00  0.00    +0.119 HD
ATOM     51  H   UNL     1     -12.658 -11.036  11.682  1.00  0.00    +0.119 HD
ENDBRANCH  44  49
BRANCH  46  52
ATOM     52  O   UNL     1     -13.437  -8.493  13.947  1.00  0.00    -0.388 OA
ATOM     53  H   UNL     1     -13.478  -7.527  13.790  1.00  0.00    +0.211 HD
ENDBRANCH  46  52
BRANCH  47  54
ATOM     54  C   UNL     1      -9.102  -8.508  15.168  1.00  0.00    +0.191 C 
BRANCH  54  55
ATOM     55  O   UNL     1      -7.727  -8.797  14.937  1.00  0.00    -0.394 OA
ATOM     56  H   UNL     1      -7.643  -9.770  14.890  1.00  0.00    +0.210 HD
ENDBRANCH  54  55
ENDBRANCH  47  54
BRANCH  48  57
ATOM     57  O   UNL     1     -11.606  -6.825  15.262  1.00  0.00    -0.388 OA
ATOM     58  H   UNL     1     -11.677  -5.868  15.047  1.00  0.00    +0.211 HD
ENDBRANCH  48  57
ENDBRANCH  42  43
ENDBRANCH   3  42
BRANCH   5  59
ATOM     59  O   UNL     1      -9.815  -6.736   7.792  1.00  0.00    -0.320 OA
BRANCH  59  60
ATOM     60  C   UNL     1      -9.807  -5.355   8.160  1.00  0.00    +0.273 C 
ATOM     61  C   UNL     1     -11.080  -4.969   8.968  1.00  0.00    +0.140 C 
ATOM     62  O   UNL     1      -8.629  -5.187   8.963  1.00  0.00    -0.342 OA
ATOM     63  C   UNL     1     -10.919  -3.539   9.525  1.00  0.00    +0.174 C 
ATOM     64  C   UNL     1      -8.440  -3.834   9.408  1.00  0.00    +0.178 C 
ATOM     65  C   UNL     1      -9.603  -3.394  10.297  1.00  0.00    +0.176 C 
BRANCH  61  66
ATOM     66  N   UNL     1     -12.325  -5.040   8.177  1.00  0.00    -0.321 NA
ATOM     67  H   UNL     1     -12.664  -4.083   8.011  1.00  0.00    +0.119 HD
ATOM     68  H   UNL     1     -13.053  -5.489   8.754  1.00  0.00    +0.119 HD
ENDBRANCH  61  66
BRANCH  63  69
ATOM     69  O   UNL     1     -11.984  -3.237  10.449  1.00  0.00    -0.343 OA
BRANCH  69  70
ATOM     70  C   UNL     1     -11.905  -4.012  11.648  1.00  0.00    +0.270 C 
ATOM     71  C   UNL     1     -12.291  -3.117  12.863  1.00  0.00    +0.139 C 
ATOM     72  O   UNL     1     -12.739  -5.170  11.493  1.00  0.00    -0.342 OA
ATOM     73  C   UNL     1     -12.891  -4.026  13.941  1.00  0.00    +0.167 C 
ATOM     74  C   UNL     1     -14.100  -4.939  11.890  1.00  0.00    +0.178 C 
ATOM     75  C   UNL     1     -14.175  -4.691  13.418  1.00  0.00    +0.176 C 
BRANCH  71  76
ATOM     76  N   UNL     1     -11.157  -2.313  13.390  1.00  0.00    -0.321 NA
ATOM     77  H   UNL     1     -10.470  -2.267  12.629  1.00  0.00    +0.119 HD
ATOM     78  H   UNL     1     -11.477  -1.335  13.484  1.00  0.00    +0.119 HD
ENDBRANCH  71  76
BRANCH  73  79
ATOM     79  O   UNL     1     -13.194  -3.277  15.130  1.00  0.00    -0.388 OA
ATOM     80  H   UNL     1     -14.120  -3.504  15.341  1.00  0.00    +0.211 HD
ENDBRANCH  73  79
BRANCH  74  81
ATOM     81  C   UNL     1     -14.951  -6.119  11.401  1.00  0.00    +0.191 C 
BRANCH  81  82
ATOM     82  O   UNL     1     -14.242  -7.354  11.537  1.00  0.00    -0.394 OA
ATOM     83  H   UNL     1     -13.823  -7.533  10.676  1.00  0.00    +0.210 HD
ENDBRANCH  81  82
ENDBRANCH  74  81
BRANCH  75  84
ATOM     84  O   UNL     1     -14.389  -5.862  14.218  1.00  0.00    -0.388 OA
ATOM     85  H   UNL     1     -13.669  -5.889  14.887  1.00  0.00    +0.211 HD
ENDBRANCH  75  84
ENDBRANCH  69  70
ENDBRANCH  63  69
BRANCH  64  86
ATOM     86  C   UNL     1      -7.108  -3.787  10.161  1.00  0.00    +0.191 C 
BRANCH  86  87
ATOM     87  O   UNL     1      -7.361  -3.628  11.562  1.00  0.00    -0.394 OA
ATOM     88  H   UNL     1      -7.717  -4.492  11.848  1.00  0.00    +0.210 HD
ENDBRANCH  86  87
ENDBRANCH  64  86
BRANCH  65  89
ATOM     89  O   UNL     1      -9.439  -2.030  10.703  1.00  0.00    -0.388 OA
ATOM     90  H   UNL     1     -10.266  -1.575  10.443  1.00  0.00    +0.211 HD
ENDBRANCH  65  89
ENDBRANCH  59  60
ENDBRANCH   5  59
BRANCH   4  91
ATOM     91  N   UNL     1     -10.928  -9.190   8.756  1.00  0.00    -0.321 NA
ATOM     92  H   UNL     1     -10.682  -9.115   7.766  1.00  0.00    +0.119 HD
ATOM     93  H   UNL     1     -11.841  -8.745   8.880  1.00  0.00    +0.119 HD
ENDBRANCH   4  91
TORSDOF 36
ENDMDL
MODEL 7
REMARK VINA RESULT:    -5.569      2.629      5.760
REMARK INTER + INTRA:         -21.843
REMARK INTER:                 -16.320
REMARK INTRA:                  -5.523
REMARK UNBOUND:                -7.810
REMARK SMILES N[C@@H]1[C@@H](O[C@@H]2[C@H](N)[C@H](O[C@@H]3O[C@H](CO)[C@@H](O)[C@H](O[C@@H]4O[C@@H](CO)[C@@H](O)[C@H](O)[C@H]4N)[C@H]3N)O[C@@H](CO[C@H]3O[C@@H](CO)[C@@H](O)[C@H](O)[C@H]3N)[C@H]2O[C@H]2O[C@@H](CO)[C@@H](O)[C@@H](O)[C@H]2N)O[C@H](CO)[C@H](O)[C@H]1O
REMARK SMILES IDX 33 1 47 2 5 3 6 4 8 5 32 6 34 7 35 8 36 9 38 10 41 11 37 12
REMARK SMILES IDX 43 13 45 14 39 15 40 16 42 18 44 20 46 22 48 25 49 26 58 27
REMARK SMILES IDX 50 28 56 29 51 30 54 31 59 32 57 35 52 37 53 38 55 40 4 42
REMARK SMILES IDX 3 43 2 44 60 45 66 46 61 47 64 48 1 49 67 52 62 54 63 55
REMARK SMILES IDX 65 57 9 59 10 60 30 61 11 62 17 63 12 64 15 65 31 66 18 69
REMARK SMILES IDX 19 70 28 71 20 72 26 73 21 74 24 75 29 76 27 79 22 81 23 82
REMARK SMILES IDX 25 84 13 86 14 87 16 89 7 91
REMARK H PARENT 40 17 42 19 44 21 46 23 46 24 59 33 59 34 57 36 53 39 55 41
REMARK H PARENT 1 50 1 51 67 53 63 56 65 58 31 67 31 68 29 77 29 78 27 80
REMARK H PARENT 23 83 25 85 14 88 16 90 7 92 7 93
ROOT
ATOM      1  C   UNL     1      -8.220  -8.844   8.740  1.00  0.00    +0.179 C 
ATOM      2  C   UNL     1      -7.300  -8.447   9.914  1.00  0.00    +0.183 C 
ATOM      3  C   UNL     1      -8.061  -7.610  10.963  1.00  0.00    +0.175 C 
ATOM      4  C   UNL     1      -9.354  -8.341  11.383  1.00  0.00    +0.140 C 
ATOM      5  C   UNL     1     -10.190  -8.656  10.110  1.00  0.00    +0.273 C 
ATOM      6  O   UNL     1      -9.437  -9.455   9.206  1.00  0.00    -0.342 OA
ENDROOT
BRANCH   1   7
ATOM      7  C   UNL     1      -8.493  -7.676   7.762  1.00  0.00    +0.198 C 
BRANCH   7   8
ATOM      8  O   UNL     1      -9.718  -7.011   8.085  1.00  0.00    -0.348 OA
BRANCH   8   9
ATOM      9  C   UNL     1      -9.516  -5.660   8.526  1.00  0.00    +0.270 C 
ATOM     10  C   UNL     1      -9.071  -3.418   7.741  1.00  0.00    +0.178 C 
ATOM     11  C   UNL     1      -9.311  -3.088   9.224  1.00  0.00    +0.176 C 
ATOM     12  O   UNL     1      -9.219  -4.809   7.423  1.00  0.00    -0.342 OA
ATOM     13  C   UNL     1     -10.606  -3.721   9.756  1.00  0.00    +0.167 C 
ATOM     14  C   UNL     1     -10.795  -5.178   9.275  1.00  0.00    +0.139 C 
BRANCH  10  15
ATOM     15  C   UNL     1      -9.931  -2.608   6.757  1.00  0.00    +0.191 C 
BRANCH  15  16
ATOM     16  O   UNL     1      -9.514  -1.247   6.687  1.00  0.00    -0.394 OA
ATOM     17  H   UNL     1      -8.587  -1.248   6.389  1.00  0.00    +0.210 HD
ENDBRANCH  15  16
ENDBRANCH  10  15
BRANCH  11  18
ATOM     18  O   UNL     1      -9.306  -1.682   9.498  1.00  0.00    -0.388 OA
ATOM     19  H   UNL     1      -9.202  -1.574  10.461  1.00  0.00    +0.211 HD
ENDBRANCH  11  18
BRANCH  13  20
ATOM     20  O   UNL     1     -10.551  -3.686  11.197  1.00  0.00    -0.388 OA
ATOM     21  H   UNL     1     -10.739  -2.757  11.432  1.00  0.00    +0.211 HD
ENDBRANCH  13  20
BRANCH  14  22
ATOM     22  N   UNL     1     -12.003  -5.277   8.400  1.00  0.00    -0.321 NA
ATOM     23  H   UNL     1     -12.317  -4.304   8.252  1.00  0.00    +0.119 HD
ATOM     24  H   UNL     1     -11.660  -5.549   7.461  1.00  0.00    +0.119 HD
ENDBRANCH  14  22
ENDBRANCH   8   9
ENDBRANCH   7   8
ENDBRANCH   1   7
BRANCH   2  25
ATOM     25  O   UNL     1      -6.188  -7.675   9.425  1.00  0.00    -0.342 OA
BRANCH  25  26
ATOM     26  C   UNL     1      -5.019  -8.478   9.215  1.00  0.00    +0.270 C 
ATOM     27  C   UNL     1      -4.233  -8.551  10.561  1.00  0.00    +0.139 C 
ATOM     28  O   UNL     1      -4.206  -7.915   8.188  1.00  0.00    -0.342 OA
ATOM     29  C   UNL     1      -2.922  -9.366  10.379  1.00  0.00    +0.167 C 
ATOM     30  C   UNL     1      -2.957  -8.584   7.963  1.00  0.00    +0.178 C 
ATOM     31  C   UNL     1      -2.696  -9.768   8.917  1.00  0.00    +0.176 C 
BRANCH  27  32
ATOM     32  N   UNL     1      -4.020  -7.201  11.147  1.00  0.00    -0.321 NA
ATOM     33  H   UNL     1      -4.760  -6.592  10.782  1.00  0.00    +0.119 HD
ATOM     34  H   UNL     1      -4.232  -7.277  12.144  1.00  0.00    +0.119 HD
ENDBRANCH  27  32
BRANCH  29  35
ATOM     35  O   UNL     1      -1.745  -8.666  10.832  1.00  0.00    -0.388 OA
ATOM     36  H   UNL     1      -2.070  -7.774  11.081  1.00  0.00    +0.211 HD
ENDBRANCH  29  35
BRANCH  30  37
ATOM     37  C   UNL     1      -1.837  -7.523   7.913  1.00  0.00    +0.191 C 
BRANCH  37  38
ATOM     38  O   UNL     1      -0.678  -7.937   7.193  1.00  0.00    -0.394 OA
ATOM     39  H   UNL     1       0.104  -7.709   7.745  1.00  0.00    +0.210 HD
ENDBRANCH  37  38
ENDBRANCH  30  37
BRANCH  31  40
ATOM     40  O   UNL     1      -1.382 -10.317   8.772  1.00  0.00    -0.388 OA
ATOM     41  H   UNL     1      -1.400 -10.938   8.020  1.00  0.00    +0.211 HD
ENDBRANCH  31  40
ENDBRANCH  25  26
ENDBRANCH   2  25
BRANCH   3  42
ATOM     42  O   UNL     1      -7.162  -7.355  12.064  1.00  0.00    -0.343 OA
BRANCH  42  43
ATOM     43  C   UNL     1      -7.493  -6.200  12.843  1.00  0.00    +0.270 C 
ATOM     44  C   UNL     1      -6.252  -5.269  12.833  1.00  0.00    +0.139 C 
ATOM     45  O   UNL     1      -7.834  -6.632  14.164  1.00  0.00    -0.342 OA
ATOM     46  C   UNL     1      -6.411  -4.129  13.849  1.00  0.00    +0.167 C 
ATOM     47  C   UNL     1      -8.044  -5.580  15.111  1.00  0.00    +0.178 C 
ATOM     48  C   UNL     1      -6.793  -4.689  15.221  1.00  0.00    +0.176 C 
BRANCH  44  49
ATOM     49  N   UNL     1      -5.996  -4.709  11.483  1.00  0.00    -0.321 NA
ATOM     50  H   UNL     1      -5.222  -5.227  11.066  1.00  0.00    +0.119 HD
ATOM     51  H   UNL     1      -5.671  -3.746  11.615  1.00  0.00    +0.119 HD
ENDBRANCH  44  49
BRANCH  46  52
ATOM     52  O   UNL     1      -5.172  -3.406  13.965  1.00  0.00    -0.388 OA
ATOM     53  H   UNL     1      -5.357  -2.686  14.602  1.00  0.00    +0.211 HD
ENDBRANCH  46  52
BRANCH  47  54
ATOM     54  C   UNL     1      -9.357  -4.822  14.839  1.00  0.00    +0.191 C 
BRANCH  54  55
ATOM     55  O   UNL     1      -9.712  -4.017  15.959  1.00  0.00    -0.394 OA
ATOM     56  H   UNL     1      -9.389  -4.479  16.757  1.00  0.00    +0.210 HD
ENDBRANCH  54  55
ENDBRANCH  47  54
BRANCH  48  57
ATOM     57  O   UNL     1      -6.924  -3.602  16.145  1.00  0.00    -0.388 OA
ATOM     58  H   UNL     1      -6.300  -2.895  15.865  1.00  0.00    +0.211 HD
ENDBRANCH  48  57
ENDBRANCH  42  43
ENDBRANCH   3  42
BRANCH   5  59
ATOM     59  O   UNL     1     -11.370  -9.350  10.523  1.00  0.00    -0.320 OA
BRANCH  59  60
ATOM     60  C   UNL     1     -12.493  -8.500  10.759  1.00  0.00    +0.273 C 
ATOM     61  C   UNL     1     -13.513  -8.556   9.584  1.00  0.00    +0.140 C 
ATOM     62  O   UNL     1     -13.090  -8.993  11.968  1.00  0.00    -0.342 OA
ATOM     63  C   UNL     1     -14.797  -7.800   9.984  1.00  0.00    +0.174 C 
ATOM     64  C   UNL     1     -14.237  -8.232  12.381  1.00  0.00    +0.178 C 
ATOM     65  C   UNL     1     -15.340  -8.308  11.324  1.00  0.00    +0.176 C 
BRANCH  61  66
ATOM     66  N   UNL     1     -12.992  -7.986   8.325  1.00  0.00    -0.321 NA
ATOM     67  H   UNL     1     -13.713  -8.082   7.597  1.00  0.00    +0.119 HD
ATOM     68  H   UNL     1     -12.205  -8.570   8.004  1.00  0.00    +0.119 HD
ENDBRANCH  61  66
BRANCH  63  69
ATOM     69  O   UNL     1     -15.833  -8.015   9.003  1.00  0.00    -0.343 OA
BRANCH  69  70
ATOM     70  C   UNL     1     -16.164  -6.823   8.287  1.00  0.00    +0.270 C 
ATOM     71  C   UNL     1     -16.331  -7.162   6.776  1.00  0.00    +0.139 C 
ATOM     72  O   UNL     1     -17.337  -6.249   8.885  1.00  0.00    -0.342 OA
ATOM     73  C   UNL     1     -17.327  -6.162   6.180  1.00  0.00    +0.167 C 
ATOM     74  C   UNL     1     -18.559  -6.762   8.331  1.00  0.00    +0.178 C 
ATOM     75  C   UNL     1     -18.702  -6.320   6.853  1.00  0.00    +0.176 C 
BRANCH  71  76
ATOM     76  N   UNL     1     -15.047  -7.173   6.027  1.00  0.00    -0.321 NA
ATOM     77  H   UNL     1     -14.325  -6.902   6.705  1.00  0.00    +0.119 HD
ATOM     78  H   UNL     1     -14.814  -8.154   5.808  1.00  0.00    +0.119 HD
ENDBRANCH  71  76
BRANCH  73  79
ATOM     79  O   UNL     1     -17.466  -6.363   4.763  1.00  0.00    -0.388 OA
ATOM     80  H   UNL     1     -16.551  -6.387   4.422  1.00  0.00    +0.211 HD
ENDBRANCH  73  79
BRANCH  74  81
ATOM     81  C   UNL     1     -19.719  -6.324   9.235  1.00  0.00    +0.191 C 
BRANCH  81  82
ATOM     82  O   UNL     1     -20.979  -6.536   8.592  1.00  0.00    -0.394 OA
ATOM     83  H   UNL     1     -20.801  -7.065   7.793  1.00  0.00    +0.210 HD
ENDBRANCH  81  82
ENDBRANCH  74  81
BRANCH  75  84
ATOM     84  O   UNL     1     -19.404  -5.086   6.649  1.00  0.00    -0.388 OA
ATOM     85  H   UNL     1     -19.917  -4.907   7.470  1.00  0.00    +0.211 HD
ENDBRANCH  75  84
ENDBRANCH  69  70
ENDBRANCH  63  69
BRANCH  64  86
ATOM     86  C   UNL     1     -14.703  -8.808  13.721  1.00  0.00    +0.191 C 
BRANCH  86  87
ATOM     87  O   UNL     1     -13.585  -9.386  14.403  1.00  0.00    -0.394 OA
ATOM     88  H   UNL     1     -12.959  -8.644  14.526  1.00  0.00    +0.210 HD
ENDBRANCH  86  87
ENDBRANCH  64  86
BRANCH  65  89
ATOM     89  O   UNL     1     -16.466  -7.512  11.713  1.00  0.00    -0.388 OA
ATOM     90  H   UNL     1     -16.972  -8.062  12.345  1.00  0.00    +0.211 HD
ENDBRANCH  65  89
ENDBRANCH  59  60
ENDBRANCH   5  59
BRANCH   4  91
ATOM     91  N   UNL     1      -9.043  -9.556  12.177  1.00  0.00    -0.321 NA
ATOM     92  H   UNL     1      -9.099  -9.303  13.167  1.00  0.00    +0.119 HD
ATOM     93  H   UNL     1      -8.073  -9.816  11.981  1.00  0.00    +0.119 HD
ENDBRANCH   4  91
TORSDOF 36
ENDMDL
MODEL 8
REMARK VINA RESULT:    -5.541     24.890     28.850
REMARK INTER + INTRA:         -21.773
REMARK INTER:                 -16.323
REMARK INTRA:                  -5.450
REMARK UNBOUND:                -7.810
REMARK SMILES N[C@@H]1[C@@H](O[C@@H]2[C@H](N)[C@H](O[C@@H]3O[C@H](CO)[C@@H](O)[C@H](O[C@@H]4O[C@@H](CO)[C@@H](O)[C@H](O)[C@H]4N)[C@H]3N)O[C@@H](CO[C@H]3O[C@@H](CO)[C@@H](O)[C@H](O)[C@H]3N)[C@H]2O[C@H]2O[C@@H](CO)[C@@H](O)[C@@H](O)[C@H]2N)O[C@H](CO)[C@H](O)[C@H]1O
REMARK SMILES IDX 33 1 47 2 5 3 6 4 8 5 32 6 34 7 35 8 36 9 38 10 41 11 37 12
REMARK SMILES IDX 43 13 45 14 39 15 40 16 42 18 44 20 46 22 48 25 49 26 58 27
REMARK SMILES IDX 50 28 56 29 51 30 54 31 59 32 57 35 52 37 53 38 55 40 4 42
REMARK SMILES IDX 3 43 2 44 60 45 66 46 61 47 64 48 1 49 67 52 62 54 63 55
REMARK SMILES IDX 65 57 9 59 10 60 30 61 11 62 17 63 12 64 15 65 31 66 18 69
REMARK SMILES IDX 19 70 28 71 20 72 26 73 21 74 24 75 29 76 27 79 22 81 23 82
REMARK SMILES IDX 25 84 13 86 14 87 16 89 7 91
REMARK H PARENT 40 17 42 19 44 21 46 23 46 24 59 33 59 34 57 36 53 39 55 41
REMARK H PARENT 1 50 1 51 67 53 63 56 65 58 31 67 31 68 29 77 29 78 27 80
REMARK H PARENT 23 83 25 85 14 88 16 90 7 92 7 93
ROOT
ATOM      1  C   UNL     1      -5.941  18.501   4.837  1.00  0.00    +0.179 C 
ATOM      2  C   UNL     1      -7.161  18.104   5.694  1.00  0.00    +0.183 C 
ATOM      3  C   UNL     1      -8.475  18.612   5.067  1.00  0.00    +0.175 C 
ATOM      4  C   UNL     1      -8.559  18.168   3.590  1.00  0.00    +0.140 C 
ATOM      5  C   UNL     1      -7.284  18.654   2.845  1.00  0.00    +0.273 C 
ATOM      6  O   UNL     1      -6.117  18.122   3.459  1.00  0.00    -0.342 OA
ENDROOT
BRANCH   1   7
ATOM      7  C   UNL     1      -5.556  19.993   4.984  1.00  0.00    +0.198 C 
BRANCH   7   8
ATOM      8  O   UNL     1      -4.245  20.134   5.540  1.00  0.00    -0.348 OA
BRANCH   8   9
ATOM      9  C   UNL     1      -3.331  20.787   4.646  1.00  0.00    +0.270 C 
ATOM     10  C   UNL     1      -1.268  22.043   4.572  1.00  0.00    +0.178 C 
ATOM     11  C   UNL     1      -1.475  21.870   3.058  1.00  0.00    +0.176 C 
ATOM     12  O   UNL     1      -2.281  21.420   5.373  1.00  0.00    -0.342 OA
ATOM     13  C   UNL     1      -1.770  20.411   2.676  1.00  0.00    +0.167 C 
ATOM     14  C   UNL     1      -2.763  19.733   3.648  1.00  0.00    +0.139 C 
BRANCH  10  15
ATOM     15  C   UNL     1       0.103  21.577   5.088  1.00  0.00    +0.191 C 
BRANCH  15  16
ATOM     16  O   UNL     1       0.412  20.257   4.648  1.00  0.00    -0.394 OA
ATOM     17  H   UNL     1       0.216  19.656   5.389  1.00  0.00    +0.210 HD
ENDBRANCH  15  16
ENDBRANCH  10  15
BRANCH  11  18
ATOM     18  O   UNL     1      -0.380  22.367   2.278  1.00  0.00    -0.388 OA
ATOM     19  H   UNL     1      -0.432  21.943   1.402  1.00  0.00    +0.211 HD
ENDBRANCH  11  18
BRANCH  13  20
ATOM     20  O   UNL     1      -2.315  20.409   1.341  1.00  0.00    -0.388 OA
ATOM     21  H   UNL     1      -3.261  20.621   1.455  1.00  0.00    +0.211 HD
ENDBRANCH  13  20
BRANCH  14  22
ATOM     22  N   UNL     1      -2.090  18.612   4.371  1.00  0.00    -0.321 NA
ATOM     23  H   UNL     1      -1.178  18.490   3.902  1.00  0.00    +0.119 HD
ATOM     24  H   UNL     1      -1.819  18.986   5.298  1.00  0.00    +0.119 HD
ENDBRANCH  14  22
ENDBRANCH   8   9
ENDBRANCH   7   8
ENDBRANCH   1   7
BRANCH   2  25
ATOM     25  O   UNL     1      -7.033  18.661   7.015  1.00  0.00    -0.342 OA
BRANCH  25  26
ATOM     26  C   UNL     1      -6.298  17.805   7.899  1.00  0.00    +0.270 C 
ATOM     27  C   UNL     1      -6.932  16.380   7.830  1.00  0.00    +0.139 C 
ATOM     28  O   UNL     1      -6.340  18.310   9.231  1.00  0.00    -0.342 OA
ATOM     29  C   UNL     1      -6.208  15.418   8.813  1.00  0.00    +0.167 C 
ATOM     30  C   UNL     1      -5.720  17.476  10.220  1.00  0.00    +0.178 C 
ATOM     31  C   UNL     1      -5.162  16.149   9.664  1.00  0.00    +0.176 C 
BRANCH  27  32
ATOM     32  N   UNL     1      -8.406  16.425   8.015  1.00  0.00    -0.321 NA
ATOM     33  H   UNL     1      -8.743  15.456   8.008  1.00  0.00    +0.119 HD
ATOM     34  H   UNL     1      -8.571  16.736   8.975  1.00  0.00    +0.119 HD
ENDBRANCH  27  32
BRANCH  29  35
ATOM     35  O   UNL     1      -7.107  14.733   9.709  1.00  0.00    -0.388 OA
ATOM     36  H   UNL     1      -7.440  15.434  10.309  1.00  0.00    +0.211 HD
ENDBRANCH  29  35
BRANCH  30  37
ATOM     37  C   UNL     1      -6.687  17.332  11.414  1.00  0.00    +0.191 C 
BRANCH  37  38
ATOM     38  O   UNL     1      -8.066  17.352  11.049  1.00  0.00    -0.394 OA
ATOM     39  H   UNL     1      -8.528  17.937  11.691  1.00  0.00    +0.210 HD
ENDBRANCH  37  38
ENDBRANCH  30  37
BRANCH  31  40
ATOM     40  O   UNL     1      -4.689  15.272  10.692  1.00  0.00    -0.388 OA
ATOM     41  H   UNL     1      -5.225  15.433  11.491  1.00  0.00    +0.211 HD
ENDBRANCH  31  40
ENDBRANCH  25  26
ENDBRANCH   2  25
BRANCH   3  42
ATOM     42  O   UNL     1      -9.569  18.127   5.875  1.00  0.00    -0.343 OA
BRANCH  42  43
ATOM     43  C   UNL     1     -10.459  19.148   6.341  1.00  0.00    +0.270 C 
ATOM     44  C   UNL     1     -10.706  18.886   7.850  1.00  0.00    +0.139 C 
ATOM     45  O   UNL     1     -11.665  19.076   5.574  1.00  0.00    -0.342 OA
ATOM     46  C   UNL     1     -11.846  19.767   8.381  1.00  0.00    +0.167 C 
ATOM     47  C   UNL     1     -12.719  19.935   6.021  1.00  0.00    +0.178 C 
ATOM     48  C   UNL     1     -13.081  19.637   7.487  1.00  0.00    +0.176 C 
BRANCH  44  49
ATOM     49  N   UNL     1      -9.480  19.108   8.655  1.00  0.00    -0.321 NA
ATOM     50  H   UNL     1      -8.694  18.686   8.159  1.00  0.00    +0.119 HD
ATOM     51  H   UNL     1      -9.595  18.583   9.527  1.00  0.00    +0.119 HD
ENDBRANCH  44  49
BRANCH  46  52
ATOM     52  O   UNL     1     -12.189  19.363   9.719  1.00  0.00    -0.388 OA
ATOM     53  H   UNL     1     -11.993  20.142  10.278  1.00  0.00    +0.211 HD
ENDBRANCH  46  52
BRANCH  47  54
ATOM     54  C   UNL     1     -12.416  21.414   5.716  1.00  0.00    +0.191 C 
BRANCH  54  55
ATOM     55  O   UNL     1     -13.613  22.184   5.729  1.00  0.00    -0.394 OA
ATOM     56  H   UNL     1     -14.244  21.722   6.316  1.00  0.00    +0.210 HD
ENDBRANCH  54  55
ENDBRANCH  47  54
BRANCH  48  57
ATOM     57  O   UNL     1     -14.125  20.463   8.015  1.00  0.00    -0.388 OA
ATOM     58  H   UNL     1     -13.877  20.705   8.936  1.00  0.00    +0.211 HD
ENDBRANCH  48  57
ENDBRANCH  42  43
ENDBRANCH   3  42
BRANCH   5  59
ATOM     59  O   UNL     1      -7.377  18.214   1.488  1.00  0.00    -0.320 OA
BRANCH  59  60
ATOM     60  C   UNL     1      -6.687  19.049   0.556  1.00  0.00    +0.273 C 
ATOM     61  C   UNL     1      -7.585  19.416  -0.661  1.00  0.00    +0.140 C 
ATOM     62  O   UNL     1      -6.335  20.228   1.296  1.00  0.00    -0.342 OA
ATOM     63  C   UNL     1      -6.877  20.486  -1.517  1.00  0.00    +0.174 C 
ATOM     64  C   UNL     1      -5.601  21.184   0.515  1.00  0.00    +0.178 C 
ATOM     65  C   UNL     1      -6.445  21.680  -0.659  1.00  0.00    +0.176 C 
BRANCH  61  66
ATOM     66  N   UNL     1      -7.919  18.259  -1.516  1.00  0.00    -0.321 NA
ATOM     67  H   UNL     1      -7.046  17.868  -1.895  1.00  0.00    +0.119 HD
ATOM     68  H   UNL     1      -8.442  18.600  -2.337  1.00  0.00    +0.119 HD
ENDBRANCH  61  66
BRANCH  63  69
ATOM     69  O   UNL     1      -7.771  20.996  -2.526  1.00  0.00    -0.343 OA
BRANCH  69  70
ATOM     70  C   UNL     1      -7.298  20.747  -3.853  1.00  0.00    +0.270 C 
ATOM     71  C   UNL     1      -5.987  19.908  -3.780  1.00  0.00    +0.139 C 
ATOM     72  O   UNL     1      -8.350  20.115  -4.597  1.00  0.00    -0.342 OA
ATOM     73  C   UNL     1      -5.896  19.072  -5.061  1.00  0.00    +0.167 C 
ATOM     74  C   UNL     1      -8.347  18.684  -4.470  1.00  0.00    +0.178 C 
ATOM     75  C   UNL     1      -7.080  18.093  -5.138  1.00  0.00    +0.176 C 
BRANCH  71  76
ATOM     76  N   UNL     1      -4.768  20.733  -3.572  1.00  0.00    -0.321 NA
ATOM     77  H   UNL     1      -4.002  20.066  -3.423  1.00  0.00    +0.119 HD
ATOM     78  H   UNL     1      -4.527  21.177  -4.473  1.00  0.00    +0.119 HD
ENDBRANCH  71  76
BRANCH  73  79
ATOM     79  O   UNL     1      -4.664  18.333  -5.101  1.00  0.00    -0.388 OA
ATOM     80  H   UNL     1      -4.919  17.435  -5.388  1.00  0.00    +0.211 HD
ENDBRANCH  73  79
BRANCH  74  81
ATOM     81  C   UNL     1      -9.668  18.147  -5.037  1.00  0.00    +0.191 C 
BRANCH  81  82
ATOM     82  O   UNL     1      -9.620  16.725  -5.189  1.00  0.00    -0.394 OA
ATOM     83  H   UNL     1      -9.345  16.550  -6.106  1.00  0.00    +0.210 HD
ENDBRANCH  81  82
ENDBRANCH  74  81
BRANCH  75  84
ATOM     84  O   UNL     1      -7.228  17.734  -6.519  1.00  0.00    -0.388 OA
ATOM     85  H   UNL     1      -8.170  17.482  -6.652  1.00  0.00    +0.211 HD
ENDBRANCH  75  84
ENDBRANCH  69  70
ENDBRANCH  63  69
BRANCH  64  86
ATOM     86  C   UNL     1      -5.213  22.332   1.452  1.00  0.00    +0.191 C 
BRANCH  86  87
ATOM     87  O   UNL     1      -4.010  22.946   0.977  1.00  0.00    -0.394 OA
ATOM     88  H   UNL     1      -3.313  22.279   1.136  1.00  0.00    +0.210 HD
ENDBRANCH  86  87
ENDBRANCH  64  86
BRANCH  65  89
ATOM     89  O   UNL     1      -5.698  22.599  -1.465  1.00  0.00    -0.388 OA
ATOM     90  H   UNL     1      -6.024  22.474  -2.379  1.00  0.00    +0.211 HD
ENDBRANCH  65  89
ENDBRANCH  59  60
ENDBRANCH   5  59
BRANCH   4  91
ATOM     91  N   UNL     1      -8.758  16.701   3.487  1.00  0.00    -0.321 NA
ATOM     92  H   UNL     1      -9.635  16.471   3.961  1.00  0.00    +0.119 HD
ATOM     93  H   UNL     1      -8.001  16.247   4.006  1.00  0.00    +0.119 HD
ENDBRANCH   4  91
TORSDOF 36
ENDMDL
MODEL 9
REMARK VINA RESULT:    -5.539     20.129     24.864
REMARK INTER + INTRA:         -21.768
REMARK INTER:                 -14.918
REMARK INTRA:                  -6.850
REMARK UNBOUND:                -7.810
REMARK SMILES N[C@@H]1[C@@H](O[C@@H]2[C@H](N)[C@H](O[C@@H]3O[C@H](CO)[C@@H](O)[C@H](O[C@@H]4O[C@@H](CO)[C@@H](O)[C@H](O)[C@H]4N)[C@H]3N)O[C@@H](CO[C@H]3O[C@@H](CO)[C@@H](O)[C@H](O)[C@H]3N)[C@H]2O[C@H]2O[C@@H](CO)[C@@H](O)[C@@H](O)[C@H]2N)O[C@H](CO)[C@H](O)[C@H]1O
REMARK SMILES IDX 33 1 47 2 5 3 6 4 8 5 32 6 34 7 35 8 36 9 38 10 41 11 37 12
REMARK SMILES IDX 43 13 45 14 39 15 40 16 42 18 44 20 46 22 48 25 49 26 58 27
REMARK SMILES IDX 50 28 56 29 51 30 54 31 59 32 57 35 52 37 53 38 55 40 4 42
REMARK SMILES IDX 3 43 2 44 60 45 66 46 61 47 64 48 1 49 67 52 62 54 63 55
REMARK SMILES IDX 65 57 9 59 10 60 30 61 11 62 17 63 12 64 15 65 31 66 18 69
REMARK SMILES IDX 19 70 28 71 20 72 26 73 21 74 24 75 29 76 27 79 22 81 23 82
REMARK SMILES IDX 25 84 13 86 14 87 16 89 7 91
REMARK H PARENT 40 17 42 19 44 21 46 23 46 24 59 33 59 34 57 36 53 39 55 41
REMARK H PARENT 1 50 1 51 67 53 63 56 65 58 31 67 31 68 29 77 29 78 27 80
REMARK H PARENT 23 83 25 85 14 88 16 90 7 92 7 93
ROOT
ATOM      1  C   UNL     1      15.786  -7.245   4.590  1.00  0.00    +0.179 C 
ATOM      2  C   UNL     1      16.021  -7.547   6.084  1.00  0.00    +0.183 C 
ATOM      3  C   UNL     1      15.372  -8.884   6.495  1.00  0.00    +0.175 C 
ATOM      4  C   UNL     1      15.827 -10.006   5.536  1.00  0.00    +0.140 C 
ATOM      5  C   UNL     1      15.507  -9.580   4.075  1.00  0.00    +0.273 C 
ATOM      6  O   UNL     1      16.164  -8.358   3.760  1.00  0.00    -0.342 OA
ENDROOT
BRANCH   1   7
ATOM      7  C   UNL     1      14.347  -6.758   4.289  1.00  0.00    +0.198 C 
BRANCH   7   8
ATOM      8  O   UNL     1      14.157  -6.554   2.885  1.00  0.00    -0.348 OA
BRANCH   8   9
ATOM      9  C   UNL     1      14.977  -5.499   2.362  1.00  0.00    +0.270 C 
ATOM     10  C   UNL     1      15.906  -4.608   0.317  1.00  0.00    +0.178 C 
ATOM     11  C   UNL     1      16.333  -3.475   1.265  1.00  0.00    +0.176 C 
ATOM     12  O   UNL     1      15.160  -5.652   0.957  1.00  0.00    -0.342 OA
ATOM     13  C   UNL     1      15.169  -2.975   2.134  1.00  0.00    +0.167 C 
ATOM     14  C   UNL     1      14.307  -4.130   2.692  1.00  0.00    +0.139 C 
BRANCH  10  15
ATOM     15  C   UNL     1      15.116  -4.145  -0.918  1.00  0.00    +0.191 C 
BRANCH  15  16
ATOM     16  O   UNL     1      15.881  -3.262  -1.735  1.00  0.00    -0.394 OA
ATOM     17  H   UNL     1      15.267  -2.863  -2.377  1.00  0.00    +0.210 HD
ENDBRANCH  15  16
ENDBRANCH  10  15
BRANCH  11  18
ATOM     18  O   UNL     1      16.946  -2.371   0.586  1.00  0.00    -0.388 OA
ATOM     19  H   UNL     1      16.518  -1.557   0.910  1.00  0.00    +0.211 HD
ENDBRANCH  11  18
BRANCH  13  20
ATOM     20  O   UNL     1      15.730  -2.213   3.222  1.00  0.00    -0.388 OA
ATOM     21  H   UNL     1      15.906  -2.870   3.923  1.00  0.00    +0.211 HD
ENDBRANCH  13  20
BRANCH  14  22
ATOM     22  N   UNL     1      12.924  -4.057   2.131  1.00  0.00    -0.321 NA
ATOM     23  H   UNL     1      12.514  -3.193   2.521  1.00  0.00    +0.119 HD
ATOM     24  H   UNL     1      13.029  -3.825   1.128  1.00  0.00    +0.119 HD
ENDBRANCH  14  22
ENDBRANCH   8   9
ENDBRANCH   7   8
ENDBRANCH   1   7
BRANCH   2  25
ATOM     25  O   UNL     1      15.461  -6.494   6.891  1.00  0.00    -0.342 OA
BRANCH  25  26
ATOM     26  C   UNL     1      16.438  -5.513   7.260  1.00  0.00    +0.270 C 
ATOM     27  C   UNL     1      16.129  -5.047   8.718  1.00  0.00    +0.139 C 
ATOM     28  O   UNL     1      16.400  -4.408   6.361  1.00  0.00    -0.342 OA
ATOM     29  C   UNL     1      17.127  -3.938   9.154  1.00  0.00    +0.167 C 
ATOM     30  C   UNL     1      17.270  -3.318   6.695  1.00  0.00    +0.178 C 
ATOM     31  C   UNL     1      18.056  -3.519   8.008  1.00  0.00    +0.176 C 
BRANCH  27  32
ATOM     32  N   UNL     1      14.702  -4.662   8.880  1.00  0.00    -0.321 NA
ATOM     33  H   UNL     1      14.140  -5.507   8.729  1.00  0.00    +0.119 HD
ATOM     34  H   UNL     1      14.565  -4.450   9.871  1.00  0.00    +0.119 HD
ENDBRANCH  27  32
BRANCH  29  35
ATOM     35  O   UNL     1      16.479  -2.750   9.655  1.00  0.00    -0.388 OA
ATOM     36  H   UNL     1      16.394  -2.166   8.871  1.00  0.00    +0.211 HD
ENDBRANCH  29  35
BRANCH  30  37
ATOM     37  C   UNL     1      16.464  -2.005   6.608  1.00  0.00    +0.191 C 
BRANCH  37  38
ATOM     38  O   UNL     1      17.270  -0.829   6.588  1.00  0.00    -0.394 OA
ATOM     39  H   UNL     1      16.707  -0.096   6.250  1.00  0.00    +0.210 HD
ENDBRANCH  37  38
ENDBRANCH  30  37
BRANCH  31  40
ATOM     40  O   UNL     1      18.795  -2.357   8.396  1.00  0.00    -0.388 OA
ATOM     41  H   UNL     1      19.665  -2.653   8.725  1.00  0.00    +0.211 HD
ENDBRANCH  31  40
ENDBRANCH  25  26
ENDBRANCH   2  25
BRANCH   3  42
ATOM     42  O   UNL     1      15.710  -9.137   7.876  1.00  0.00    -0.343 OA
BRANCH  42  43
ATOM     43  C   UNL     1      14.636  -9.666   8.661  1.00  0.00    +0.270 C 
ATOM     44  C   UNL     1      14.891  -9.240  10.131  1.00  0.00    +0.139 C 
ATOM     45  O   UNL     1      14.624 -11.088   8.504  1.00  0.00    -0.342 OA
ATOM     46  C   UNL     1      13.940  -9.973  11.089  1.00  0.00    +0.167 C 
ATOM     47  C   UNL     1      13.700 -11.784   9.348  1.00  0.00    +0.178 C 
ATOM     48  C   UNL     1      13.983 -11.481  10.831  1.00  0.00    +0.176 C 
BRANCH  44  49
ATOM     49  N   UNL     1      14.755  -7.774  10.310  1.00  0.00    -0.321 NA
ATOM     50  H   UNL     1      14.228  -7.405   9.518  1.00  0.00    +0.119 HD
ATOM     51  H   UNL     1      15.697  -7.376  10.249  1.00  0.00    +0.119 HD
ENDBRANCH  44  49
BRANCH  46  52
ATOM     52  O   UNL     1      14.330  -9.717  12.450  1.00  0.00    -0.388 OA
ATOM     53  H   UNL     1      15.021  -9.027  12.390  1.00  0.00    +0.211 HD
ENDBRANCH  46  52
BRANCH  47  54
ATOM     54  C   UNL     1      12.243 -11.554   8.907  1.00  0.00    +0.191 C 
BRANCH  54  55
ATOM     55  O   UNL     1      12.103 -11.768   7.507  1.00  0.00    -0.394 OA
ATOM     56  H   UNL     1      12.825 -12.369   7.236  1.00  0.00    +0.210 HD
ENDBRANCH  54  55
ENDBRANCH  47  54
BRANCH  48  57
ATOM     57  O   UNL     1      13.094 -12.133  11.745  1.00  0.00    -0.388 OA
ATOM     58  H   UNL     1      12.536 -11.440  12.165  1.00  0.00    +0.211 HD
ENDBRANCH  48  57
ENDBRANCH  42  43
ENDBRANCH   3  42
BRANCH   5  59
ATOM     59  O   UNL     1      15.956 -10.624   3.208  1.00  0.00    -0.320 OA
BRANCH  59  60
ATOM     60  C   UNL     1      14.970 -11.071   2.276  1.00  0.00    +0.273 C 
ATOM     61  C   UNL     1      14.009 -12.116   2.914  1.00  0.00    +0.140 C 
ATOM     62  O   UNL     1      14.249  -9.889   1.895  1.00  0.00    -0.342 OA
ATOM     63  C   UNL     1      12.841 -12.397   1.944  1.00  0.00    +0.174 C 
ATOM     64  C   UNL     1      13.219 -10.145   0.927  1.00  0.00    +0.178 C 
ATOM     65  C   UNL     1      12.167 -11.094   1.502  1.00  0.00    +0.176 C 
BRANCH  61  66
ATOM     66  N   UNL     1      14.668 -13.392   3.255  1.00  0.00    -0.321 NA
ATOM     67  H   UNL     1      14.005 -13.974   3.785  1.00  0.00    +0.119 HD
ATOM     68  H   UNL     1      15.439 -13.195   3.911  1.00  0.00    +0.119 HD
ENDBRANCH  61  66
BRANCH  63  69
ATOM     69  O   UNL     1      11.830 -13.195   2.592  1.00  0.00    -0.343 OA
BRANCH  69  70
ATOM     70  C   UNL     1      11.393 -12.625   3.829  1.00  0.00    +0.270 C 
ATOM     71  C   UNL     1       9.836 -12.644   3.878  1.00  0.00    +0.139 C 
ATOM     72  O   UNL     1      12.016 -13.346   4.903  1.00  0.00    -0.342 OA
ATOM     73  C   UNL     1       9.417 -12.736   5.349  1.00  0.00    +0.167 C 
ATOM     74  C   UNL     1      11.262 -14.496   5.320  1.00  0.00    +0.178 C 
ATOM     75  C   UNL     1       9.924 -14.053   5.963  1.00  0.00    +0.176 C 
BRANCH  71  76
ATOM     76  N   UNL     1       9.209 -11.480   3.199  1.00  0.00    -0.321 NA
ATOM     77  H   UNL     1       9.054 -10.778   3.932  1.00  0.00    +0.119 HD
ATOM     78  H   UNL     1       9.921 -11.042   2.594  1.00  0.00    +0.119 HD
ENDBRANCH  71  76
BRANCH  73  79
ATOM     79  O   UNL     1       7.986 -12.672   5.478  1.00  0.00    -0.388 OA
ATOM     80  H   UNL     1       7.765 -11.728   5.357  1.00  0.00    +0.211 HD
ENDBRANCH  73  79
BRANCH  74  81
ATOM     81  C   UNL     1      12.151 -15.347   6.237  1.00  0.00    +0.191 C 
BRANCH  81  82
ATOM     82  O   UNL     1      12.852 -14.527   7.176  1.00  0.00    -0.394 OA
ATOM     83  H   UNL     1      12.233 -14.343   7.905  1.00  0.00    +0.210 HD
ENDBRANCH  81  82
ENDBRANCH  74  81
BRANCH  75  84
ATOM     84  O   UNL     1       9.963 -13.857   7.383  1.00  0.00    -0.388 OA
ATOM     85  H   UNL     1       9.994 -14.750   7.796  1.00  0.00    +0.211 HD
ENDBRANCH  75  84
ENDBRANCH  69  70
ENDBRANCH  63  69
BRANCH  64  86
ATOM     86  C   UNL     1      12.608  -8.794   0.548  1.00  0.00    +0.191 C 
BRANCH  86  87
ATOM     87  O   UNL     1      13.652  -7.896   0.153  1.00  0.00    -0.394 OA
ATOM     88  H   UNL     1      13.430  -7.051   0.592  1.00  0.00    +0.210 HD
ENDBRANCH  86  87
ENDBRANCH  64  86
BRANCH  65  89
ATOM     89  O   UNL     1      11.163 -11.387   0.523  1.00  0.00    -0.388 OA
ATOM     90  H   UNL     1      11.634 -11.429  -0.334  1.00  0.00    +0.211 HD
ENDBRANCH  65  89
ENDBRANCH  59  60
ENDBRANCH   5  59
BRANCH   4  91
ATOM     91  N   UNL     1      17.262 -10.327   5.738  1.00  0.00    -0.321 NA
ATOM     92  H   UNL     1      17.315 -11.249   6.178  1.00  0.00    +0.119 HD
ATOM     93  H   UNL     1      17.642  -9.648   6.401  1.00  0.00    +0.119 HD
ENDBRANCH   4  91
TORSDOF 36
ENDMDL
