MODEL 1
REMARK VINA RESULT:    -7.278      0.000      0.000
REMARK INTER + INTRA:         -12.262
REMARK INTER:                 -10.682
REMARK INTRA:                  -1.580
REMARK UNBOUND:                -1.580
REMARK SMILES O=S(=O)(O)OC[C@@H]1O[C@H](O[C@H]2[C@@H]3OC[C@H]2O[C@@H](O)[C@H]3O)[C@@H](O)[C@H](O)[C@@H]1O
REMARK SMILES IDX 9 1 21 2 23 3 25 4 7 5 8 6 10 7 11 8 14 9 15 10 13 11 16 12
REMARK SMILES IDX 12 13 17 14 19 15 18 16 20 18 22 20 24 22 6 24 5 25 2 26
REMARK SMILES IDX 1 27 3 28 4 29 26 31
REMARK H PARENT 18 17 20 19 22 21 24 23 4 30 26 32
ROOT
ATOM      1  C   UNL     1       4.607 -15.032  -2.399  1.00  0.00    +0.282 C 
ATOM      2  C   UNL     1       5.793 -14.112  -2.748  1.00  0.00    +0.202 C 
ATOM      3  C   UNL     1       5.956 -14.102  -4.259  1.00  0.00    +0.179 C 
ATOM      4  C   UNL     1       4.716 -13.470  -4.897  1.00  0.00    +0.177 C 
ATOM      5  C   UNL     1       3.406 -13.833  -4.157  1.00  0.00    +0.180 C 
ATOM      6  O   UNL     1       3.543 -15.017  -3.349  1.00  0.00    -0.341 OA
ENDROOT
BRANCH   1   7
ATOM      7  O   UNL     1       4.180 -14.710  -1.072  1.00  0.00    -0.341 OA
BRANCH   7   8
ATOM      8  C   UNL     1       4.048 -15.856  -0.238  1.00  0.00    +0.184 C 
ATOM      9  C   UNL     1       3.498 -16.905   1.785  1.00  0.00    +0.195 C 
ATOM     10  C   UNL     1       3.133 -15.669   0.962  1.00  0.00    +0.179 C 
ATOM     11  O   UNL     1       4.903 -17.153   1.524  1.00  0.00    -0.370 OA
ATOM     12  O   UNL     1       3.430 -14.430   1.631  1.00  0.00    -0.342 OA
ATOM     13  C   UNL     1       5.321 -16.173   0.539  1.00  0.00    +0.184 C 
ATOM     14  C   UNL     1       4.752 -14.289   2.138  1.00  0.00    +0.279 C 
ATOM     15  C   UNL     1       5.843 -14.910   1.237  1.00  0.00    +0.202 C 
BRANCH  14  16
ATOM     16  O   UNL     1       4.804 -14.857   3.444  1.00  0.00    -0.366 OA
ATOM     17  H   UNL     1       5.568 -15.461   3.418  1.00  0.00    +0.213 HD
ENDBRANCH  14  16
BRANCH  15  18
ATOM     18  O   UNL     1       7.021 -15.212   1.997  1.00  0.00    -0.385 OA
ATOM     19  H   UNL     1       7.196 -14.388   2.499  1.00  0.00    +0.211 HD
ENDBRANCH  15  18
ENDBRANCH   7   8
ENDBRANCH   1   7
BRANCH   2  20
ATOM     20  O   UNL     1       7.013 -14.576  -2.145  1.00  0.00    -0.385 OA
ATOM     21  H   UNL     1       7.396 -13.805  -1.682  1.00  0.00    +0.211 HD
ENDBRANCH   2  20
BRANCH   3  22
ATOM     22  O   UNL     1       7.119 -13.344  -4.633  1.00  0.00    -0.387 OA
ATOM     23  H   UNL     1       6.772 -12.607  -5.180  1.00  0.00    +0.211 HD
ENDBRANCH   3  22
BRANCH   5  24
ATOM     24  C   UNL     1       2.756 -12.677  -3.375  1.00  0.00    +0.220 C 
BRANCH  24  25
ATOM     25  O   UNL     1       1.353 -12.917  -3.295  1.00  0.00    -0.245 OA
BRANCH  25  26
ATOM     26  S   UNL     1       0.761 -13.487  -1.895  1.00  0.00    +0.397 S 
ATOM     27  O   UNL     1       0.821 -14.931  -1.885  1.00  0.00    -0.169 OA
ATOM     28  O   UNL     1      -0.452 -12.764  -1.588  1.00  0.00    -0.169 OA
BRANCH  26  29
ATOM     29  O   UNL     1       1.841 -12.945  -0.831  1.00  0.00    -0.264 OA
ATOM     30  H   UNL     1       2.653 -12.730  -1.333  1.00  0.00    +0.236 HD
ENDBRANCH  26  29
ENDBRANCH  25  26
ENDBRANCH  24  25
ENDBRANCH   5  24
BRANCH   4  31
ATOM     31  O   UNL     1       4.898 -12.052  -4.973  1.00  0.00    -0.387 OA
ATOM     32  H   UNL     1       5.869 -11.918  -4.889  1.00  0.00    +0.211 HD
ENDBRANCH   4  31
TORSDOF 11
ENDMDL
MODEL 2
REMARK VINA RESULT:    -7.266     16.772     20.228
REMARK INTER + INTRA:         -12.244
REMARK INTER:                 -11.263
REMARK INTRA:                  -0.981
REMARK UNBOUND:                -1.580
REMARK SMILES O=S(=O)(O)OC[C@@H]1O[C@H](O[C@H]2[C@@H]3OC[C@H]2O[C@@H](O)[C@H]3O)[C@@H](O)[C@H](O)[C@@H]1O
REMARK SMILES IDX 9 1 21 2 23 3 25 4 7 5 8 6 10 7 11 8 14 9 15 10 13 11 16 12
REMARK SMILES IDX 12 13 17 14 19 15 18 16 20 18 22 20 24 22 6 24 5 25 2 26
REMARK SMILES IDX 1 27 3 28 4 29 26 31
REMARK H PARENT 18 17 20 19 22 21 24 23 4 30 26 32
ROOT
ATOM      1  C   UNL     1       5.119 -17.416 -20.784  1.00  0.00    +0.282 C 
ATOM      2  C   UNL     1       4.181 -18.624 -20.594  1.00  0.00    +0.202 C 
ATOM      3  C   UNL     1       4.859 -19.607 -19.656  1.00  0.00    +0.179 C 
ATOM      4  C   UNL     1       5.019 -18.963 -18.277  1.00  0.00    +0.177 C 
ATOM      5  C   UNL     1       5.347 -17.452 -18.352  1.00  0.00    +0.180 C 
ATOM      6  O   UNL     1       5.886 -17.071 -19.632  1.00  0.00    -0.341 OA
ENDROOT
BRANCH   1   7
ATOM      7  O   UNL     1       4.336 -16.328 -21.285  1.00  0.00    -0.341 OA
BRANCH   7   8
ATOM      8  C   UNL     1       4.622 -16.018 -22.645  1.00  0.00    +0.184 C 
ATOM      9  C   UNL     1       6.044 -15.273 -24.353  1.00  0.00    +0.195 C 
ATOM     10  C   UNL     1       6.104 -15.951 -22.984  1.00  0.00    +0.179 C 
ATOM     11  O   UNL     1       4.903 -14.378 -24.302  1.00  0.00    -0.370 OA
ATOM     12  O   UNL     1       6.811 -15.180 -21.996  1.00  0.00    -0.342 OA
ATOM     13  C   UNL     1       4.276 -14.578 -23.009  1.00  0.00    +0.184 C 
ATOM     14  C   UNL     1       6.397 -13.827 -21.838  1.00  0.00    +0.279 C 
ATOM     15  C   UNL     1       4.873 -13.613 -21.976  1.00  0.00    +0.202 C 
BRANCH  14  16
ATOM     16  O   UNL     1       7.099 -13.021 -22.782  1.00  0.00    -0.366 OA
ATOM     17  H   UNL     1       7.319 -12.208 -22.293  1.00  0.00    +0.213 HD
ENDBRANCH  14  16
BRANCH  15  18
ATOM     18  O   UNL     1       4.579 -12.256 -22.335  1.00  0.00    -0.385 OA
ATOM     19  H   UNL     1       4.189 -12.328 -23.232  1.00  0.00    +0.211 HD
ENDBRANCH  15  18
ENDBRANCH   7   8
ENDBRANCH   1   7
BRANCH   2  20
ATOM     20  O   UNL     1       3.906 -19.277 -21.846  1.00  0.00    -0.385 OA
ATOM     21  H   UNL     1       3.093 -19.800 -21.704  1.00  0.00    +0.211 HD
ENDBRANCH   2  20
BRANCH   3  22
ATOM     22  O   UNL     1       4.072 -20.804 -19.531  1.00  0.00    -0.387 OA
ATOM     23  H   UNL     1       4.603 -21.500 -19.974  1.00  0.00    +0.211 HD
ENDBRANCH   3  22
BRANCH   5  24
ATOM     24  C   UNL     1       4.209 -16.515 -17.906  1.00  0.00    +0.220 C 
BRANCH  24  25
ATOM     25  O   UNL     1       4.517 -15.192 -18.340  1.00  0.00    -0.245 OA
BRANCH  25  26
ATOM     26  S   UNL     1       3.319 -14.097 -18.337  1.00  0.00    +0.397 S 
ATOM     27  O   UNL     1       3.864 -12.768 -18.501  1.00  0.00    -0.169 OA
ATOM     28  O   UNL     1       2.404 -14.427 -17.269  1.00  0.00    -0.169 OA
BRANCH  26  29
ATOM     29  O   UNL     1       2.524 -14.468 -19.687  1.00  0.00    -0.264 OA
ATOM     30  H   UNL     1       1.597 -14.649 -19.431  1.00  0.00    +0.236 HD
ENDBRANCH  26  29
ENDBRANCH  25  26
ENDBRANCH  24  25
ENDBRANCH   5  24
BRANCH   4  31
ATOM     31  O   UNL     1       3.836 -19.204 -17.506  1.00  0.00    -0.387 OA
ATOM     32  H   UNL     1       3.275 -19.773 -18.079  1.00  0.00    +0.211 HD
ENDBRANCH   4  31
TORSDOF 11
ENDMDL
MODEL 3
REMARK VINA RESULT:    -7.199      2.929      5.340
REMARK INTER + INTRA:         -12.146
REMARK INTER:                 -11.178
REMARK INTRA:                  -0.967
REMARK UNBOUND:                -1.580
REMARK SMILES O=S(=O)(O)OC[C@@H]1O[C@H](O[C@H]2[C@@H]3OC[C@H]2O[C@@H](O)[C@H]3O)[C@@H](O)[C@H](O)[C@@H]1O
REMARK SMILES IDX 9 1 21 2 23 3 25 4 7 5 8 6 10 7 11 8 14 9 15 10 13 11 16 12
REMARK SMILES IDX 12 13 17 14 19 15 18 16 20 18 22 20 24 22 6 24 5 25 2 26
REMARK SMILES IDX 1 27 3 28 4 29 26 31
REMARK H PARENT 18 17 20 19 22 21 24 23 4 30 26 32
ROOT
ATOM      1  C   UNL     1       1.617 -14.779  -0.060  1.00  0.00    +0.282 C 
ATOM      2  C   UNL     1       0.381 -14.448  -0.918  1.00  0.00    +0.202 C 
ATOM      3  C   UNL     1       0.420 -12.967  -1.254  1.00  0.00    +0.179 C 
ATOM      4  C   UNL     1       1.643 -12.678  -2.128  1.00  0.00    +0.177 C 
ATOM      5  C   UNL     1       2.879 -13.522  -1.733  1.00  0.00    +0.180 C 
ATOM      6  O   UNL     1       2.787 -14.032  -0.389  1.00  0.00    -0.341 OA
ENDROOT
BRANCH   1   7
ATOM      7  O   UNL     1       1.820 -16.193  -0.111  1.00  0.00    -0.341 OA
BRANCH   7   8
ATOM      8  C   UNL     1       2.098 -16.762   1.164  1.00  0.00    +0.184 C 
ATOM      9  C   UNL     1       2.501 -18.579   2.588  1.00  0.00    +0.195 C 
ATOM     10  C   UNL     1       2.662 -18.174   1.122  1.00  0.00    +0.179 C 
ATOM     11  O   UNL     1       1.306 -17.904   3.057  1.00  0.00    -0.370 OA
ATOM     12  O   UNL     1       1.899 -18.992   0.218  1.00  0.00    -0.342 OA
ATOM     13  C   UNL     1       0.837 -17.081   1.958  1.00  0.00    +0.184 C 
ATOM     14  C   UNL     1       0.516 -19.145   0.519  1.00  0.00    +0.279 C 
ATOM     15  C   UNL     1      -0.150 -17.872   1.088  1.00  0.00    +0.202 C 
BRANCH  14  16
ATOM     16  O   UNL     1       0.364 -20.233   1.427  1.00  0.00    -0.366 OA
ATOM     17  H   UNL     1       1.217 -20.701   1.394  1.00  0.00    +0.213 HD
ENDBRANCH  14  16
BRANCH  15  18
ATOM     18  O   UNL     1      -1.323 -18.204   1.843  1.00  0.00    -0.385 OA
ATOM     19  H   UNL     1      -1.022 -18.167   2.776  1.00  0.00    +0.211 HD
ENDBRANCH  15  18
ENDBRANCH   7   8
ENDBRANCH   1   7
BRANCH   2  20
ATOM     20  O   UNL     1      -0.839 -14.741  -0.216  1.00  0.00    -0.385 OA
ATOM     21  H   UNL     1      -0.602 -14.788   0.731  1.00  0.00    +0.211 HD
ENDBRANCH   2  20
BRANCH   3  22
ATOM     22  O   UNL     1      -0.770 -12.582  -1.963  1.00  0.00    -0.387 OA
ATOM     23  H   UNL     1      -0.760 -11.602  -1.956  1.00  0.00    +0.211 HD
ENDBRANCH   3  22
BRANCH   5  24
ATOM     24  C   UNL     1       3.267 -14.622  -2.738  1.00  0.00    +0.220 C 
BRANCH  24  25
ATOM     25  O   UNL     1       4.348 -14.144  -3.536  1.00  0.00    -0.245 OA
BRANCH  25  26
ATOM     26  S   UNL     1       5.831 -14.730  -3.229  1.00  0.00    +0.397 S 
ATOM     27  O   UNL     1       5.974 -16.043  -3.816  1.00  0.00    -0.169 OA
ATOM     28  O   UNL     1       6.145 -14.467  -1.843  1.00  0.00    -0.169 OA
BRANCH  26  29
ATOM     29  O   UNL     1       6.767 -13.718  -4.061  1.00  0.00    -0.264 OA
ATOM     30  H   UNL     1       6.778 -12.871  -3.570  1.00  0.00    +0.236 HD
ENDBRANCH  26  29
ENDBRANCH  25  26
ENDBRANCH  24  25
ENDBRANCH   5  24
BRANCH   4  31
ATOM     31  O   UNL     1       1.294 -12.874  -3.503  1.00  0.00    -0.387 OA
ATOM     32  H   UNL     1       2.109 -13.232  -3.921  1.00  0.00    +0.211 HD
ENDBRANCH   4  31
TORSDOF 11
ENDMDL
MODEL 4
REMARK VINA RESULT:    -7.065      2.464      4.940
REMARK INTER + INTRA:         -11.950
REMARK INTER:                 -10.967
REMARK INTRA:                  -0.983
REMARK UNBOUND:                -1.580
REMARK SMILES O=S(=O)(O)OC[C@@H]1O[C@H](O[C@H]2[C@@H]3OC[C@H]2O[C@@H](O)[C@H]3O)[C@@H](O)[C@H](O)[C@@H]1O
REMARK SMILES IDX 9 1 21 2 23 3 25 4 7 5 8 6 10 7 11 8 14 9 15 10 13 11 16 12
REMARK SMILES IDX 12 13 17 14 19 15 18 16 20 18 22 20 24 22 6 24 5 25 2 26
REMARK SMILES IDX 1 27 3 28 4 29 26 31
REMARK H PARENT 18 17 20 19 22 21 24 23 4 30 26 32
ROOT
ATOM      1  C   UNL     1       2.289 -14.849  -0.639  1.00  0.00    +0.282 C 
ATOM      2  C   UNL     1       0.840 -14.776  -1.158  1.00  0.00    +0.202 C 
ATOM      3  C   UNL     1       0.384 -13.329  -1.089  1.00  0.00    +0.179 C 
ATOM      4  C   UNL     1       1.230 -12.485  -2.047  1.00  0.00    +0.177 C 
ATOM      5  C   UNL     1       2.708 -12.938  -2.104  1.00  0.00    +0.180 C 
ATOM      6  O   UNL     1       3.090 -13.710  -0.949  1.00  0.00    -0.341 OA
ENDROOT
BRANCH   1   7
ATOM      7  O   UNL     1       2.858 -16.078  -1.100  1.00  0.00    -0.341 OA
BRANCH   7   8
ATOM      8  C   UNL     1       3.951 -16.518  -0.301  1.00  0.00    +0.184 C 
ATOM      9  C   UNL     1       5.911 -17.758   0.041  1.00  0.00    +0.195 C 
ATOM     10  C   UNL     1       5.124 -17.086  -1.085  1.00  0.00    +0.179 C 
ATOM     11  O   UNL     1       4.920 -18.220   0.995  1.00  0.00    -0.370 OA
ATOM     12  O   UNL     1       4.659 -18.010  -2.085  1.00  0.00    -0.342 OA
ATOM     13  C   UNL     1       3.631 -17.773   0.503  1.00  0.00    +0.184 C 
ATOM     14  C   UNL     1       3.937 -19.142  -1.610  1.00  0.00    +0.279 C 
ATOM     15  C   UNL     1       3.013 -18.842  -0.409  1.00  0.00    +0.202 C 
BRANCH  14  16
ATOM     16  O   UNL     1       4.866 -20.170  -1.277  1.00  0.00    -0.366 OA
ATOM     17  H   UNL     1       4.870 -20.190  -0.304  1.00  0.00    +0.213 HD
ENDBRANCH  14  16
BRANCH  15  18
ATOM     18  O   UNL     1       2.742 -20.036   0.336  1.00  0.00    -0.385 OA
ATOM     19  H   UNL     1       2.732 -19.734   1.270  1.00  0.00    +0.211 HD
ENDBRANCH  15  18
ENDBRANCH   7   8
ENDBRANCH   1   7
BRANCH   2  20
ATOM     20  O   UNL     1      -0.043 -15.589  -0.366  1.00  0.00    -0.385 OA
ATOM     21  H   UNL     1      -0.132 -16.437  -0.844  1.00  0.00    +0.211 HD
ENDBRANCH   2  20
BRANCH   3  22
ATOM     22  O   UNL     1      -1.001 -13.222  -1.460  1.00  0.00    -0.387 OA
ATOM     23  H   UNL     1      -1.219 -14.087  -1.865  1.00  0.00    +0.211 HD
ENDBRANCH   3  22
BRANCH   5  24
ATOM     24  C   UNL     1       3.131 -13.623  -3.416  1.00  0.00    +0.220 C 
BRANCH  24  25
ATOM     25  O   UNL     1       3.259 -12.626  -4.426  1.00  0.00    -0.245 OA
BRANCH  25  26
ATOM     26  S   UNL     1       4.453 -12.798  -5.513  1.00  0.00    +0.397 S 
ATOM     27  O   UNL     1       3.901 -13.156  -6.800  1.00  0.00    -0.169 OA
ATOM     28  O   UNL     1       5.522 -13.550  -4.897  1.00  0.00    -0.169 OA
BRANCH  26  29
ATOM     29  O   UNL     1       5.021 -11.296  -5.626  1.00  0.00    -0.264 OA
ATOM     30  H   UNL     1       4.970 -11.042  -6.570  1.00  0.00    +0.236 HD
ENDBRANCH  26  29
ENDBRANCH  25  26
ENDBRANCH  24  25
ENDBRANCH   5  24
BRANCH   4  31
ATOM     31  O   UNL     1       0.626 -12.503  -3.345  1.00  0.00    -0.387 OA
ATOM     32  H   UNL     1      -0.191 -13.039  -3.235  1.00  0.00    +0.211 HD
ENDBRANCH   4  31
TORSDOF 11
ENDMDL
MODEL 5
REMARK VINA RESULT:    -6.909     16.692     20.412
REMARK INTER + INTRA:         -11.720
REMARK INTER:                 -10.711
REMARK INTRA:                  -1.009
REMARK UNBOUND:                -1.580
REMARK SMILES O=S(=O)(O)OC[C@@H]1O[C@H](O[C@H]2[C@@H]3OC[C@H]2O[C@@H](O)[C@H]3O)[C@@H](O)[C@H](O)[C@@H]1O
REMARK SMILES IDX 9 1 21 2 23 3 25 4 7 5 8 6 10 7 11 8 14 9 15 10 13 11 16 12
REMARK SMILES IDX 12 13 17 14 19 15 18 16 20 18 22 20 24 22 6 24 5 25 2 26
REMARK SMILES IDX 1 27 3 28 4 29 26 31
REMARK H PARENT 18 17 20 19 22 21 24 23 4 30 26 32
ROOT
ATOM      1  C   UNL     1       4.007 -15.928 -19.704  1.00  0.00    +0.282 C 
ATOM      2  C   UNL     1       5.107 -15.841 -18.627  1.00  0.00    +0.202 C 
ATOM      3  C   UNL     1       4.520 -16.320 -17.311  1.00  0.00    +0.179 C 
ATOM      4  C   UNL     1       4.148 -17.801 -17.431  1.00  0.00    +0.177 C 
ATOM      5  C   UNL     1       3.592 -18.171 -18.827  1.00  0.00    +0.180 C 
ATOM      6  O   UNL     1       3.105 -17.022 -19.545  1.00  0.00    -0.341 OA
ENDROOT
BRANCH   1   7
ATOM      7  O   UNL     1       4.645 -15.907 -20.984  1.00  0.00    -0.341 OA
BRANCH   7   8
ATOM      8  C   UNL     1       4.157 -14.872 -21.831  1.00  0.00    +0.184 C 
ATOM      9  C   UNL     1       4.080 -13.713 -23.867  1.00  0.00    +0.195 C 
ATOM     10  C   UNL     1       4.376 -15.109 -23.317  1.00  0.00    +0.179 C 
ATOM     11  O   UNL     1       4.517 -12.783 -22.842  1.00  0.00    -0.370 OA
ATOM     12  O   UNL     1       5.726 -15.544 -23.562  1.00  0.00    -0.342 OA
ATOM     13  C   UNL     1       4.966 -13.585 -21.720  1.00  0.00    +0.184 C 
ATOM     14  C   UNL     1       6.759 -14.648 -23.166  1.00  0.00    +0.279 C 
ATOM     15  C   UNL     1       6.465 -13.889 -21.852  1.00  0.00    +0.202 C 
BRANCH  14  16
ATOM     16  O   UNL     1       6.999 -13.728 -24.227  1.00  0.00    -0.366 OA
ATOM     17  H   UNL     1       7.895 -13.947 -24.542  1.00  0.00    +0.213 HD
ENDBRANCH  14  16
BRANCH  15  18
ATOM     18  O   UNL     1       7.227 -12.676 -21.783  1.00  0.00    -0.385 OA
ATOM     19  H   UNL     1       7.576 -12.668 -20.866  1.00  0.00    +0.211 HD
ENDBRANCH  15  18
ENDBRANCH   7   8
ENDBRANCH   1   7
BRANCH   2  20
ATOM     20  O   UNL     1       5.582 -14.493 -18.470  1.00  0.00    -0.385 OA
ATOM     21  H   UNL     1       6.383 -14.423 -19.026  1.00  0.00    +0.211 HD
ENDBRANCH   2  20
BRANCH   3  22
ATOM     22  O   UNL     1       5.474 -16.156 -16.248  1.00  0.00    -0.387 OA
ATOM     23  H   UNL     1       5.181 -15.351 -15.770  1.00  0.00    +0.211 HD
ENDBRANCH   3  22
BRANCH   5  24
ATOM     24  C   UNL     1       4.527 -19.035 -19.693  1.00  0.00    +0.220 C 
BRANCH  24  25
ATOM     25  O   UNL     1       4.178 -20.405 -19.507  1.00  0.00    -0.245 OA
BRANCH  25  26
ATOM     26  S   UNL     1       3.429 -21.168 -20.729  1.00  0.00    +0.397 S 
ATOM     27  O   UNL     1       4.389 -21.532 -21.746  1.00  0.00    -0.169 OA
ATOM     28  O   UNL     1       2.215 -20.447 -21.038  1.00  0.00    -0.169 OA
BRANCH  26  29
ATOM     29  O   UNL     1       2.930 -22.524 -20.019  1.00  0.00    -0.264 OA
ATOM     30  H   UNL     1       3.729 -23.055 -19.825  1.00  0.00    +0.236 HD
ENDBRANCH  26  29
ENDBRANCH  25  26
ENDBRANCH  24  25
ENDBRANCH   5  24
BRANCH   4  31
ATOM     31  O   UNL     1       5.288 -18.599 -17.093  1.00  0.00    -0.387 OA
ATOM     32  H   UNL     1       5.931 -18.440 -17.819  1.00  0.00    +0.211 HD
ENDBRANCH   4  31
TORSDOF 11
ENDMDL
MODEL 6
REMARK VINA RESULT:    -6.900     18.426     20.584
REMARK INTER + INTRA:         -11.706
REMARK INTER:                 -10.300
REMARK INTRA:                  -1.406
REMARK UNBOUND:                -1.580
REMARK SMILES O=S(=O)(O)OC[C@@H]1O[C@H](O[C@H]2[C@@H]3OC[C@H]2O[C@@H](O)[C@H]3O)[C@@H](O)[C@H](O)[C@@H]1O
REMARK SMILES IDX 9 1 21 2 23 3 25 4 7 5 8 6 10 7 11 8 14 9 15 10 13 11 16 12
REMARK SMILES IDX 12 13 17 14 19 15 18 16 20 18 22 20 24 22 6 24 5 25 2 26
REMARK SMILES IDX 1 27 3 28 4 29 26 31
REMARK H PARENT 18 17 20 19 22 21 24 23 4 30 26 32
ROOT
ATOM      1  C   UNL     1       5.793 -15.853 -20.220  1.00  0.00    +0.282 C 
ATOM      2  C   UNL     1       4.706 -14.821 -19.862  1.00  0.00    +0.202 C 
ATOM      3  C   UNL     1       5.391 -13.510 -19.517  1.00  0.00    +0.179 C 
ATOM      4  C   UNL     1       6.107 -12.972 -20.759  1.00  0.00    +0.177 C 
ATOM      5  C   UNL     1       6.735 -14.090 -21.625  1.00  0.00    +0.180 C 
ATOM      6  O   UNL     1       6.932 -15.310 -20.886  1.00  0.00    -0.341 OA
ENDROOT
BRANCH   1   7
ATOM      7  O   UNL     1       5.168 -16.913 -20.948  1.00  0.00    -0.341 OA
BRANCH   7   8
ATOM      8  C   UNL     1       5.214 -18.160 -20.262  1.00  0.00    +0.184 C 
ATOM      9  C   UNL     1       4.752 -20.451 -20.078  1.00  0.00    +0.195 C 
ATOM     10  C   UNL     1       4.988 -19.379 -21.143  1.00  0.00    +0.179 C 
ATOM     11  O   UNL     1       4.094 -19.775 -18.976  1.00  0.00    -0.370 OA
ATOM     12  O   UNL     1       3.855 -19.173 -22.006  1.00  0.00    -0.342 OA
ATOM     13  C   UNL     1       4.023 -18.371 -19.334  1.00  0.00    +0.184 C 
ATOM     14  C   UNL     1       2.608 -18.935 -21.361  1.00  0.00    +0.279 C 
ATOM     15  C   UNL     1       2.713 -18.080 -20.079  1.00  0.00    +0.202 C 
BRANCH  14  16
ATOM     16  O   UNL     1       1.996 -20.190 -21.072  1.00  0.00    -0.366 OA
ATOM     17  H   UNL     1       2.428 -20.489 -20.253  1.00  0.00    +0.213 HD
ENDBRANCH  14  16
BRANCH  15  18
ATOM     18  O   UNL     1       1.590 -18.310 -19.218  1.00  0.00    -0.385 OA
ATOM     19  H   UNL     1       0.978 -17.572 -19.426  1.00  0.00    +0.211 HD
ENDBRANCH  15  18
ENDBRANCH   7   8
ENDBRANCH   1   7
BRANCH   2  20
ATOM     20  O   UNL     1       3.920 -15.253 -18.738  1.00  0.00    -0.385 OA
ATOM     21  H   UNL     1       3.134 -14.673 -18.718  1.00  0.00    +0.211 HD
ENDBRANCH   2  20
BRANCH   3  22
ATOM     22  O   UNL     1       4.427 -12.542 -19.071  1.00  0.00    -0.387 OA
ATOM     23  H   UNL     1       4.448 -12.601 -18.092  1.00  0.00    +0.211 HD
ENDBRANCH   3  22
BRANCH   5  24
ATOM     24  C   UNL     1       6.035 -14.342 -22.973  1.00  0.00    +0.220 C 
BRANCH  24  25
ATOM     25  O   UNL     1       6.616 -15.497 -23.575  1.00  0.00    -0.245 OA
BRANCH  25  26
ATOM     26  S   UNL     1       5.678 -16.395 -24.549  1.00  0.00    +0.397 S 
ATOM     27  O   UNL     1       6.335 -17.647 -24.849  1.00  0.00    -0.169 OA
ATOM     28  O   UNL     1       5.144 -15.538 -25.582  1.00  0.00    -0.169 OA
BRANCH  26  29
ATOM     29  O   UNL     1       4.421 -16.719 -23.596  1.00  0.00    -0.264 OA
ATOM     30  H   UNL     1       4.557 -17.622 -23.243  1.00  0.00    +0.236 HD
ENDBRANCH  26  29
ENDBRANCH  25  26
ENDBRANCH  24  25
ENDBRANCH   5  24
BRANCH   4  31
ATOM     31  O   UNL     1       5.193 -12.172 -21.519  1.00  0.00    -0.387 OA
ATOM     32  H   UNL     1       5.702 -11.895 -22.313  1.00  0.00    +0.211 HD
ENDBRANCH   4  31
TORSDOF 11
ENDMDL
MODEL 7
REMARK VINA RESULT:    -6.831     17.593     20.791
REMARK INTER + INTRA:         -11.606
REMARK INTER:                 -10.664
REMARK INTRA:                  -0.942
REMARK UNBOUND:                -1.580
REMARK SMILES O=S(=O)(O)OC[C@@H]1O[C@H](O[C@H]2[C@@H]3OC[C@H]2O[C@@H](O)[C@H]3O)[C@@H](O)[C@H](O)[C@@H]1O
REMARK SMILES IDX 9 1 21 2 23 3 25 4 7 5 8 6 10 7 11 8 14 9 15 10 13 11 16 12
REMARK SMILES IDX 12 13 17 14 19 15 18 16 20 18 22 20 24 22 6 24 5 25 2 26
REMARK SMILES IDX 1 27 3 28 4 29 26 31
REMARK H PARENT 18 17 20 19 22 21 24 23 4 30 26 32
ROOT
ATOM      1  C   UNL     1       5.485 -15.313 -20.354  1.00  0.00    +0.282 C 
ATOM      2  C   UNL     1       4.558 -14.520 -21.296  1.00  0.00    +0.202 C 
ATOM      3  C   UNL     1       5.259 -13.225 -21.671  1.00  0.00    +0.179 C 
ATOM      4  C   UNL     1       6.521 -13.548 -22.476  1.00  0.00    +0.177 C 
ATOM      5  C   UNL     1       7.241 -14.825 -21.982  1.00  0.00    +0.180 C 
ATOM      6  O   UNL     1       6.877 -15.172 -20.632  1.00  0.00    -0.341 OA
ENDROOT
BRANCH   1   7
ATOM      7  O   UNL     1       5.047 -16.674 -20.353  1.00  0.00    -0.341 OA
BRANCH   7   8
ATOM      8  C   UNL     1       4.511 -17.085 -19.100  1.00  0.00    +0.184 C 
ATOM      9  C   UNL     1       4.299 -18.600 -17.324  1.00  0.00    +0.195 C 
ATOM     10  C   UNL     1       5.305 -18.173 -18.394  1.00  0.00    +0.179 C 
ATOM     11  O   UNL     1       2.989 -18.431 -17.923  1.00  0.00    -0.370 OA
ATOM     12  O   UNL     1       5.640 -19.227 -19.315  1.00  0.00    -0.342 OA
ATOM     13  C   UNL     1       3.205 -17.858 -19.238  1.00  0.00    +0.184 C 
ATOM     14  C   UNL     1       4.545 -19.897 -19.932  1.00  0.00    +0.279 C 
ATOM     15  C   UNL     1       3.358 -18.973 -20.282  1.00  0.00    +0.202 C 
BRANCH  14  16
ATOM     16  O   UNL     1       4.116 -20.954 -19.078  1.00  0.00    -0.366 OA
ATOM     17  H   UNL     1       4.477 -21.761 -19.488  1.00  0.00    +0.213 HD
ENDBRANCH  14  16
BRANCH  15  18
ATOM     18  O   UNL     1       2.142 -19.724 -20.390  1.00  0.00    -0.385 OA
ATOM     19  H   UNL     1       2.388 -20.495 -20.945  1.00  0.00    +0.211 HD
ENDBRANCH  15  18
ENDBRANCH   7   8
ENDBRANCH   1   7
BRANCH   2  20
ATOM     20  O   UNL     1       3.305 -14.212 -20.662  1.00  0.00    -0.385 OA
ATOM     21  H   UNL     1       3.289 -13.241 -20.551  1.00  0.00    +0.211 HD
ENDBRANCH   2  20
BRANCH   3  22
ATOM     22  O   UNL     1       4.391 -12.396 -22.462  1.00  0.00    -0.387 OA
ATOM     23  H   UNL     1       4.985 -11.956 -23.107  1.00  0.00    +0.211 HD
ENDBRANCH   3  22
BRANCH   5  24
ATOM     24  C   UNL     1       7.148 -16.034 -22.930  1.00  0.00    +0.220 C 
BRANCH  24  25
ATOM     25  O   UNL     1       7.838 -15.718 -24.137  1.00  0.00    -0.245 OA
BRANCH  25  26
ATOM     26  S   UNL     1       8.192 -16.936 -25.149  1.00  0.00    +0.397 S 
ATOM     27  O   UNL     1       9.473 -16.702 -25.776  1.00  0.00    -0.169 OA
ATOM     28  O   UNL     1       7.006 -17.249 -25.914  1.00  0.00    -0.169 OA
BRANCH  26  29
ATOM     29  O   UNL     1       8.363 -18.174 -24.134  1.00  0.00    -0.264 OA
ATOM     30  H   UNL     1       7.874 -17.944 -23.319  1.00  0.00    +0.236 HD
ENDBRANCH  26  29
ENDBRANCH  25  26
ENDBRANCH  24  25
ENDBRANCH   5  24
BRANCH   4  31
ATOM     31  O   UNL     1       6.180 -13.642 -23.864  1.00  0.00    -0.387 OA
ATOM     32  H   UNL     1       5.204 -13.760 -23.875  1.00  0.00    +0.211 HD
ENDBRANCH   4  31
TORSDOF 11
ENDMDL
MODEL 8
REMARK VINA RESULT:    -6.773     16.900     20.617
REMARK INTER + INTRA:         -11.521
REMARK INTER:                 -10.689
REMARK INTRA:                  -0.832
REMARK UNBOUND:                -1.580
REMARK SMILES O=S(=O)(O)OC[C@@H]1O[C@H](O[C@H]2[C@@H]3OC[C@H]2O[C@@H](O)[C@H]3O)[C@@H](O)[C@H](O)[C@@H]1O
REMARK SMILES IDX 9 1 21 2 23 3 25 4 7 5 8 6 10 7 11 8 14 9 15 10 13 11 16 12
REMARK SMILES IDX 12 13 17 14 19 15 18 16 20 18 22 20 24 22 6 24 5 25 2 26
REMARK SMILES IDX 1 27 3 28 4 29 26 31
REMARK H PARENT 18 17 20 19 22 21 24 23 4 30 26 32
ROOT
ATOM      1  C   UNL     1       3.141 -15.235 -19.560  1.00  0.00    +0.282 C 
ATOM      2  C   UNL     1       4.492 -15.603 -18.916  1.00  0.00    +0.202 C 
ATOM      3  C   UNL     1       4.214 -16.396 -17.650  1.00  0.00    +0.179 C 
ATOM      4  C   UNL     1       3.535 -17.718 -18.020  1.00  0.00    +0.177 C 
ATOM      5  C   UNL     1       2.549 -17.579 -19.205  1.00  0.00    +0.180 C 
ATOM      6  O   UNL     1       2.120 -16.218 -19.403  1.00  0.00    -0.341 OA
ENDROOT
BRANCH   1   7
ATOM      7  O   UNL     1       3.387 -14.891 -20.926  1.00  0.00    -0.341 OA
BRANCH   7   8
ATOM      8  C   UNL     1       4.773 -14.848 -21.248  1.00  0.00    +0.184 C 
ATOM      9  C   UNL     1       6.614 -13.973 -22.406  1.00  0.00    +0.195 C 
ATOM     10  C   UNL     1       5.237 -13.550 -21.891  1.00  0.00    +0.179 C 
ATOM     11  O   UNL     1       6.490 -15.375 -22.762  1.00  0.00    -0.370 OA
ATOM     12  O   UNL     1       4.333 -13.157 -22.938  1.00  0.00    -0.342 OA
ATOM     13  C   UNL     1       5.144 -15.777 -22.398  1.00  0.00    +0.184 C 
ATOM     14  C   UNL     1       4.175 -14.078 -24.013  1.00  0.00    +0.279 C 
ATOM     15  C   UNL     1       4.190 -15.561 -23.581  1.00  0.00    +0.202 C 
BRANCH  14  16
ATOM     16  O   UNL     1       5.194 -13.832 -24.978  1.00  0.00    -0.366 OA
ATOM     17  H   UNL     1       4.970 -12.962 -25.355  1.00  0.00    +0.213 HD
ENDBRANCH  14  16
BRANCH  15  18
ATOM     18  O   UNL     1       4.557 -16.408 -24.678  1.00  0.00    -0.385 OA
ATOM     19  H   UNL     1       4.710 -17.283 -24.260  1.00  0.00    +0.211 HD
ENDBRANCH  15  18
ENDBRANCH   7   8
ENDBRANCH   1   7
BRANCH   2  20
ATOM     20  O   UNL     1       5.252 -14.430 -18.580  1.00  0.00    -0.385 OA
ATOM     21  H   UNL     1       4.614 -13.690 -18.564  1.00  0.00    +0.211 HD
ENDBRANCH   2  20
BRANCH   3  22
ATOM     22  O   UNL     1       5.439 -16.672 -16.952  1.00  0.00    -0.387 OA
ATOM     23  H   UNL     1       5.803 -17.470 -17.391  1.00  0.00    +0.211 HD
ENDBRANCH   3  22
BRANCH   5  24
ATOM     24  C   UNL     1       3.012 -18.232 -20.520  1.00  0.00    +0.220 C 
BRANCH  24  25
ATOM     25  O   UNL     1       2.719 -19.626 -20.460  1.00  0.00    -0.245 OA
BRANCH  25  26
ATOM     26  S   UNL     1       3.922 -20.667 -20.784  1.00  0.00    +0.397 S 
ATOM     27  O   UNL     1       5.155 -19.944 -20.997  1.00  0.00    -0.169 OA
ATOM     28  O   UNL     1       3.431 -21.648 -21.726  1.00  0.00    -0.169 OA
BRANCH  26  29
ATOM     29  O   UNL     1       4.057 -21.465 -19.393  1.00  0.00    -0.264 OA
ATOM     30  H   UNL     1       3.204 -21.922 -19.243  1.00  0.00    +0.236 HD
ENDBRANCH  26  29
ENDBRANCH  25  26
ENDBRANCH  24  25
ENDBRANCH   5  24
BRANCH   4  31
ATOM     31  O   UNL     1       4.540 -18.702 -18.290  1.00  0.00    -0.387 OA
ATOM     32  H   UNL     1       5.379 -18.298 -17.971  1.00  0.00    +0.211 HD
ENDBRANCH   4  31
TORSDOF 11
ENDMDL
MODEL 9
REMARK VINA RESULT:    -6.583      1.868      2.531
REMARK INTER + INTRA:         -11.242
REMARK INTER:                 -10.161
REMARK INTRA:                  -1.081
REMARK UNBOUND:                -1.580
REMARK SMILES O=S(=O)(O)OC[C@@H]1O[C@H](O[C@H]2[C@@H]3OC[C@H]2O[C@@H](O)[C@H]3O)[C@@H](O)[C@H](O)[C@@H]1O
REMARK SMILES IDX 9 1 21 2 23 3 25 4 7 5 8 6 10 7 11 8 14 9 15 10 13 11 16 12
REMARK SMILES IDX 12 13 17 14 19 15 18 16 20 18 22 20 24 22 6 24 5 25 2 26
REMARK SMILES IDX 1 27 3 28 4 29 26 31
REMARK H PARENT 18 17 20 19 22 21 24 23 4 30 26 32
ROOT
ATOM      1  C   UNL     1       5.843 -16.149  -0.675  1.00  0.00    +0.282 C 
ATOM      2  C   UNL     1       6.672 -14.880  -0.950  1.00  0.00    +0.202 C 
ATOM      3  C   UNL     1       6.485 -14.497  -2.409  1.00  0.00    +0.179 C 
ATOM      4  C   UNL     1       5.021 -14.117  -2.648  1.00  0.00    +0.177 C 
ATOM      5  C   UNL     1       4.032 -14.985  -1.833  1.00  0.00    +0.180 C 
ATOM      6  O   UNL     1       4.619 -16.229  -1.404  1.00  0.00    -0.341 OA
ENDROOT
BRANCH   1   7
ATOM      7  O   UNL     1       5.662 -16.255   0.740  1.00  0.00    -0.341 OA
BRANCH   7   8
ATOM      8  C   UNL     1       4.684 -17.225   1.103  1.00  0.00    +0.184 C 
ATOM      9  C   UNL     1       3.075 -18.111   2.558  1.00  0.00    +0.195 C 
ATOM     10  C   UNL     1       3.708 -16.772   2.178  1.00  0.00    +0.179 C 
ATOM     11  O   UNL     1       4.119 -19.105   2.393  1.00  0.00    -0.370 OA
ATOM     12  O   UNL     1       4.414 -16.146   3.265  1.00  0.00    -0.342 OA
ATOM     13  C   UNL     1       5.276 -18.405   1.864  1.00  0.00    +0.184 C 
ATOM     14  C   UNL     1       5.374 -16.951   3.940  1.00  0.00    +0.279 C 
ATOM     15  C   UNL     1       6.161 -17.904   3.014  1.00  0.00    +0.202 C 
BRANCH  14  16
ATOM     16  O   UNL     1       4.713 -17.689   4.965  1.00  0.00    -0.366 OA
ATOM     17  H   UNL     1       4.083 -17.056   5.354  1.00  0.00    +0.213 HD
ENDBRANCH  14  16
BRANCH  15  18
ATOM     18  O   UNL     1       6.691 -19.012   3.753  1.00  0.00    -0.385 OA
ATOM     19  H   UNL     1       5.986 -19.222   4.403  1.00  0.00    +0.211 HD
ENDBRANCH  15  18
ENDBRANCH   7   8
ENDBRANCH   1   7
BRANCH   2  20
ATOM     20  O   UNL     1       8.070 -15.101  -0.696  1.00  0.00    -0.385 OA
ATOM     21  H   UNL     1       8.346 -14.400  -0.073  1.00  0.00    +0.211 HD
ENDBRANCH   2  20
BRANCH   3  22
ATOM     22  O   UNL     1       7.325 -13.381  -2.746  1.00  0.00    -0.387 OA
ATOM     23  H   UNL     1       8.228 -13.658  -2.484  1.00  0.00    +0.211 HD
ENDBRANCH   3  22
BRANCH   5  24
ATOM     24  C   UNL     1       3.324 -14.256  -0.676  1.00  0.00    +0.220 C 
BRANCH  24  25
ATOM     25  O   UNL     1       2.286 -13.446  -1.221  1.00  0.00    -0.245 OA
BRANCH  25  26
ATOM     26  S   UNL     1       0.771 -14.027  -1.179  1.00  0.00    +0.397 S 
ATOM     27  O   UNL     1       0.385 -14.301   0.187  1.00  0.00    -0.169 OA
ATOM     28  O   UNL     1       0.632 -15.009  -2.230  1.00  0.00    -0.169 OA
BRANCH  26  29
ATOM     29  O   UNL     1      -0.086 -12.762  -1.685  1.00  0.00    -0.264 OA
ATOM     30  H   UNL     1      -0.398 -12.291  -0.885  1.00  0.00    +0.236 HD
ENDBRANCH  26  29
ENDBRANCH  25  26
ENDBRANCH  24  25
ENDBRANCH   5  24
BRANCH   4  31
ATOM     31  O   UNL     1       4.847 -12.724  -2.369  1.00  0.00    -0.387 OA
ATOM     32  H   UNL     1       4.215 -12.695  -1.616  1.00  0.00    +0.211 HD
ENDBRANCH   4  31
TORSDOF 11
ENDMDL
