MODEL 1
REMARK VINA RESULT:    -7.560      0.000      0.000
REMARK INTER + INTRA:         -18.714
REMARK INTER:                 -14.411
REMARK INTRA:                  -4.303
REMARK UNBOUND:                -4.303
REMARK SMILES C[C@H](NC(=O)CCC(=O)O)C(=O)N[C@@H](C)C(=O)N1CCC[C@@H]1C(=O)N[C@H](Cc1ccccc1)C(=O)Nc1ccc([N+](=O)[O-])cc1
REMARK SMILES IDX 14 1 15 2 13 3 11 4 12 5 2 7 1 8 3 9 4 10 5 11 6 13 7 14
REMARK SMILES IDX 8 15 9 16 10 17 16 19 17 20 18 21 19 22 22 23 20 24 21 25
REMARK SMILES IDX 23 26 24 27 25 28 26 30 27 31 28 32 29 33 33 34 30 35 32 36
REMARK SMILES IDX 31 37 34 38 35 39 36 40 37 42 38 43 45 44 39 45 44 46 40 47
REMARK SMILES IDX 41 48 42 49 43 50
REMARK H PARENT 13 6 3 12 10 18 25 29 36 41
ROOT
ATOM      1  C   UNL     1       3.241 -22.265   1.928  1.00  0.00    +0.168 C 
ATOM      2  C   UNL     1       2.291 -23.307   2.506  1.00  0.00    +0.041 C 
ENDROOT
BRANCH   1   3
ATOM      3  N   UNL     1       3.569 -21.257   2.930  1.00  0.00    -0.343 N 
ATOM      4  C   UNL     1       4.831 -21.098   3.457  1.00  0.00    +0.242 C 
ATOM      5  O   UNL     1       5.774 -21.812   3.130  1.00  0.00    -0.273 OA
ATOM      6  H   UNL     1       2.871 -20.537   3.111  1.00  0.00    +0.164 HD
BRANCH   4   7
ATOM      7  C   UNL     1       4.966 -19.869   4.379  1.00  0.00    +0.168 C 
ATOM      8  C   UNL     1       4.109 -20.017   5.629  1.00  0.00    +0.041 C 
BRANCH   7   9
ATOM      9  N   UNL     1       4.619 -18.649   3.644  1.00  0.00    -0.345 N 
ATOM     10  C   UNL     1       5.580 -17.887   3.020  1.00  0.00    +0.221 C 
ATOM     11  O   UNL     1       6.755 -18.222   2.934  1.00  0.00    -0.275 OA
ATOM     12  H   UNL     1       3.716 -18.233   3.839  1.00  0.00    +0.164 HD
BRANCH  10  13
ATOM     13  C   UNL     1       5.025 -16.620   2.401  1.00  0.00    +0.111 C 
BRANCH  13  14
ATOM     14  C   UNL     1       6.135 -15.659   1.994  1.00  0.00    +0.132 C 
BRANCH  14  15
ATOM     15  C   UNL     1       6.163 -15.475   0.502  1.00  0.00    +0.303 C 
ATOM     16  O   UNL     1       5.794 -14.497  -0.124  1.00  0.00    -0.252 OA
BRANCH  15  17
ATOM     17  O   UNL     1       6.613 -16.572  -0.137  1.00  0.00    -0.481 OA
ATOM     18  H   UNL     1       5.951 -16.725  -0.844  1.00  0.00    +0.296 HD
ENDBRANCH  15  17
ENDBRANCH  14  15
ENDBRANCH  13  14
ENDBRANCH  10  13
ENDBRANCH   7   9
ENDBRANCH   4   7
ENDBRANCH   1   3
BRANCH   1  19
ATOM     19  C   UNL     1       2.576 -21.532   0.745  1.00  0.00    +0.245 C 
ATOM     20  O   UNL     1       1.374 -21.244   0.783  1.00  0.00    -0.272 OA
BRANCH  19  21
ATOM     21  N   UNL     1       3.345 -21.245  -0.359  1.00  0.00    -0.329 N 
ATOM     22  C   UNL     1       4.643 -21.799  -0.714  1.00  0.00    +0.120 C 
ATOM     23  C   UNL     1       2.933 -20.208  -1.298  1.00  0.00    +0.174 C 
ATOM     24  C   UNL     1       5.114 -20.970  -1.902  1.00  0.00    +0.024 C 
ATOM     25  C   UNL     1       3.815 -20.460  -2.520  1.00  0.00    +0.037 C 
BRANCH  23  26
ATOM     26  C   UNL     1       3.190 -18.793  -0.732  1.00  0.00    +0.243 C 
ATOM     27  O   UNL     1       4.283 -18.231  -0.777  1.00  0.00    -0.273 OA
ATOM     28  N   UNL     1       2.061 -18.182  -0.214  1.00  0.00    -0.342 N 
ATOM     29  H   UNL     1       1.169 -18.534  -0.543  1.00  0.00    +0.164 HD
BRANCH  28  30
ATOM     30  C   UNL     1       2.084 -16.751   0.100  1.00  0.00    +0.176 C 
BRANCH  30  31
ATOM     31  C   UNL     1       0.907 -16.383   1.016  1.00  0.00    +0.070 C 
BRANCH  31  32
ATOM     32  C   UNL     1       1.291 -16.304   2.476  1.00  0.00    -0.045 A 
ATOM     33  C   UNL     1       1.826 -15.124   3.009  1.00  0.00    +0.004 A 
ATOM     34  C   UNL     1       1.150 -17.425   3.306  1.00  0.00    +0.004 A 
ATOM     35  C   UNL     1       2.224 -15.069   4.346  1.00  0.00    +0.000 A 
ATOM     36  C   UNL     1       1.548 -17.367   4.642  1.00  0.00    +0.000 A 
ATOM     37  C   UNL     1       2.087 -16.192   5.160  1.00  0.00    +0.000 A 
ENDBRANCH  31  32
ENDBRANCH  30  31
BRANCH  30  38
ATOM     38  C   UNL     1       1.986 -15.995  -1.248  1.00  0.00    +0.247 C 
ATOM     39  O   UNL     1       0.914 -15.929  -1.850  1.00  0.00    -0.272 OA
ATOM     40  N   UNL     1       3.173 -15.395  -1.629  1.00  0.00    -0.324 N 
ATOM     41  H   UNL     1       3.957 -15.498  -0.991  1.00  0.00    +0.170 HD
BRANCH  40  42
ATOM     42  C   UNL     1       3.416 -14.606  -2.770  1.00  0.00    +0.041 A 
ATOM     43  C   UNL     1       2.829 -13.359  -3.000  1.00  0.00    +0.033 A 
ATOM     44  C   UNL     1       4.306 -15.127  -3.722  1.00  0.00    +0.033 A 
ATOM     45  C   UNL     1       3.124 -12.635  -4.161  1.00  0.00    +0.088 A 
ATOM     46  C   UNL     1       4.609 -14.412  -4.886  1.00  0.00    +0.088 A 
ATOM     47  C   UNL     1       4.014 -13.165  -5.102  1.00  0.00    +0.269 A 
BRANCH  47  48
ATOM     48  N   UNL     1       4.327 -12.407  -6.320  1.00  0.00    +0.062 N 
ATOM     49  O   UNL     1       5.014 -11.383  -6.199  1.00  0.00    -0.258 OA
ATOM     50  O   UNL     1       3.884 -12.835  -7.395  1.00  0.00    -0.258 OA
ENDBRANCH  47  48
ENDBRANCH  40  42
ENDBRANCH  30  38
ENDBRANCH  28  30
ENDBRANCH  23  26
ENDBRANCH  19  21
ENDBRANCH   1  19
TORSDOF 16
ENDMDL
MODEL 2
REMARK VINA RESULT:    -7.517      2.117      4.366
REMARK INTER + INTRA:         -18.631
REMARK INTER:                 -14.454
REMARK INTRA:                  -4.177
REMARK UNBOUND:                -4.303
REMARK SMILES C[C@H](NC(=O)CCC(=O)O)C(=O)N[C@@H](C)C(=O)N1CCC[C@@H]1C(=O)N[C@H](Cc1ccccc1)C(=O)Nc1ccc([N+](=O)[O-])cc1
REMARK SMILES IDX 14 1 15 2 13 3 11 4 12 5 2 7 1 8 3 9 4 10 5 11 6 13 7 14
REMARK SMILES IDX 8 15 9 16 10 17 16 19 17 20 18 21 19 22 22 23 20 24 21 25
REMARK SMILES IDX 23 26 24 27 25 28 26 30 27 31 28 32 29 33 33 34 30 35 32 36
REMARK SMILES IDX 31 37 34 38 35 39 36 40 37 42 38 43 45 44 39 45 44 46 40 47
REMARK SMILES IDX 41 48 42 49 43 50
REMARK H PARENT 13 6 3 12 10 18 25 29 36 41
ROOT
ATOM      1  C   UNL     1       0.598 -18.436   1.669  1.00  0.00    +0.168 C 
ATOM      2  C   UNL     1      -0.910 -18.614   1.809  1.00  0.00    +0.041 C 
ENDROOT
BRANCH   1   3
ATOM      3  N   UNL     1       0.924 -17.048   1.356  1.00  0.00    -0.343 N 
ATOM      4  C   UNL     1       1.747 -16.271   2.140  1.00  0.00    +0.242 C 
ATOM      5  O   UNL     1       2.256 -16.690   3.176  1.00  0.00    -0.273 OA
ATOM      6  H   UNL     1       0.667 -16.708   0.432  1.00  0.00    +0.164 HD
BRANCH   4   7
ATOM      7  C   UNL     1       2.068 -14.894   1.523  1.00  0.00    +0.168 C 
ATOM      8  C   UNL     1       1.192 -14.614   0.310  1.00  0.00    +0.041 C 
BRANCH   7   9
ATOM      9  N   UNL     1       3.489 -14.818   1.176  1.00  0.00    -0.345 N 
ATOM     10  C   UNL     1       4.387 -14.134   1.963  1.00  0.00    +0.221 C 
ATOM     11  O   UNL     1       4.096 -13.646   3.048  1.00  0.00    -0.275 OA
ATOM     12  H   UNL     1       3.744 -15.032   0.218  1.00  0.00    +0.164 HD
BRANCH  10  13
ATOM     13  C   UNL     1       5.784 -14.096   1.377  1.00  0.00    +0.111 C 
BRANCH  13  14
ATOM     14  C   UNL     1       5.755 -13.938  -0.138  1.00  0.00    +0.132 C 
BRANCH  14  15
ATOM     15  C   UNL     1       7.095 -14.268  -0.736  1.00  0.00    +0.303 C 
ATOM     16  O   UNL     1       7.804 -13.531  -1.400  1.00  0.00    -0.252 OA
BRANCH  15  17
ATOM     17  O   UNL     1       7.452 -15.546  -0.509  1.00  0.00    -0.481 OA
ATOM     18  H   UNL     1       7.564 -15.926  -1.405  1.00  0.00    +0.296 HD
ENDBRANCH  15  17
ENDBRANCH  14  15
ENDBRANCH  13  14
ENDBRANCH  10  13
ENDBRANCH   7   9
ENDBRANCH   4   7
ENDBRANCH   1   3
BRANCH   1  19
ATOM     19  C   UNL     1       1.134 -19.301   0.511  1.00  0.00    +0.245 C 
ATOM     20  O   UNL     1       1.248 -18.826  -0.625  1.00  0.00    -0.272 OA
BRANCH  19  21
ATOM     21  N   UNL     1       1.441 -20.617   0.769  1.00  0.00    -0.329 N 
ATOM     22  C   UNL     1       1.454 -21.297   2.056  1.00  0.00    +0.120 C 
ATOM     23  C   UNL     1       1.906 -21.492  -0.301  1.00  0.00    +0.174 C 
ATOM     24  C   UNL     1       2.072 -22.661   1.775  1.00  0.00    +0.024 C 
ATOM     25  C   UNL     1       1.771 -22.892   0.296  1.00  0.00    +0.037 C 
BRANCH  23  26
ATOM     26  C   UNL     1       3.379 -21.204  -0.669  1.00  0.00    +0.243 C 
ATOM     27  O   UNL     1       3.965 -21.746  -1.605  1.00  0.00    -0.273 OA
ATOM     28  N   UNL     1       3.975 -20.232   0.116  1.00  0.00    -0.342 N 
ATOM     29  H   UNL     1       3.348 -19.592   0.591  1.00  0.00    +0.164 HD
BRANCH  28  30
ATOM     30  C   UNL     1       5.261 -19.656  -0.284  1.00  0.00    +0.176 C 
BRANCH  30  31
ATOM     31  C   UNL     1       6.279 -19.766   0.861  1.00  0.00    +0.070 C 
BRANCH  31  32
ATOM     32  C   UNL     1       5.673 -20.270   2.151  1.00  0.00    -0.045 A 
ATOM     33  C   UNL     1       5.814 -21.612   2.528  1.00  0.00    +0.004 A 
ATOM     34  C   UNL     1       4.929 -19.406   2.968  1.00  0.00    +0.004 A 
ATOM     35  C   UNL     1       5.212 -22.084   3.696  1.00  0.00    +0.000 A 
ATOM     36  C   UNL     1       4.329 -19.881   4.134  1.00  0.00    +0.000 A 
ATOM     37  C   UNL     1       4.468 -21.219   4.496  1.00  0.00    +0.000 A 
ENDBRANCH  31  32
ENDBRANCH  30  31
BRANCH  30  38
ATOM     38  C   UNL     1       4.996 -18.173  -0.640  1.00  0.00    +0.247 C 
ATOM     39  O   UNL     1       5.069 -17.300   0.226  1.00  0.00    -0.272 OA
ATOM     40  N   UNL     1       4.741 -17.968  -1.985  1.00  0.00    -0.324 N 
ATOM     41  H   UNL     1       4.772 -18.790  -2.581  1.00  0.00    +0.170 HD
BRANCH  40  42
ATOM     42  C   UNL     1       4.499 -16.747  -2.643  1.00  0.00    +0.041 A 
ATOM     43  C   UNL     1       5.316 -16.223  -3.649  1.00  0.00    +0.033 A 
ATOM     44  C   UNL     1       3.362 -16.028  -2.246  1.00  0.00    +0.033 A 
ATOM     45  C   UNL     1       5.007 -15.000  -4.256  1.00  0.00    +0.088 A 
ATOM     46  C   UNL     1       3.040 -14.805  -2.846  1.00  0.00    +0.088 A 
ATOM     47  C   UNL     1       3.868 -14.295  -3.852  1.00  0.00    +0.269 A 
BRANCH  47  48
ATOM     48  N   UNL     1       3.538 -13.014  -4.488  1.00  0.00    +0.062 N 
ATOM     49  O   UNL     1       3.642 -12.940  -5.721  1.00  0.00    -0.258 OA
ATOM     50  O   UNL     1       3.179 -12.081  -3.755  1.00  0.00    -0.258 OA
ENDBRANCH  47  48
ENDBRANCH  40  42
ENDBRANCH  30  38
ENDBRANCH  28  30
ENDBRANCH  23  26
ENDBRANCH  19  21
ENDBRANCH   1  19
TORSDOF 16
ENDMDL
MODEL 3
REMARK VINA RESULT:    -7.394      2.637      4.514
REMARK INTER + INTRA:         -18.397
REMARK INTER:                 -15.073
REMARK INTRA:                  -3.324
REMARK UNBOUND:                -4.303
REMARK SMILES C[C@H](NC(=O)CCC(=O)O)C(=O)N[C@@H](C)C(=O)N1CCC[C@@H]1C(=O)N[C@H](Cc1ccccc1)C(=O)Nc1ccc([N+](=O)[O-])cc1
REMARK SMILES IDX 14 1 15 2 13 3 11 4 12 5 2 7 1 8 3 9 4 10 5 11 6 13 7 14
REMARK SMILES IDX 8 15 9 16 10 17 16 19 17 20 18 21 19 22 22 23 20 24 21 25
REMARK SMILES IDX 23 26 24 27 25 28 26 30 27 31 28 32 29 33 33 34 30 35 32 36
REMARK SMILES IDX 31 37 34 38 35 39 36 40 37 42 38 43 45 44 39 45 44 46 40 47
REMARK SMILES IDX 41 48 42 49 43 50
REMARK H PARENT 13 6 3 12 10 18 25 29 36 41
ROOT
ATOM      1  C   UNL     1       0.281 -19.138   1.253  1.00  0.00    +0.168 C 
ATOM      2  C   UNL     1      -1.053 -18.435   1.480  1.00  0.00    +0.041 C 
ENDROOT
BRANCH   1   3
ATOM      3  N   UNL     1       1.182 -18.905   2.376  1.00  0.00    -0.343 N 
ATOM      4  C   UNL     1       2.047 -19.860   2.861  1.00  0.00    +0.242 C 
ATOM      5  O   UNL     1       2.109 -20.992   2.388  1.00  0.00    -0.273 OA
ATOM      6  H   UNL     1       1.290 -17.944   2.694  1.00  0.00    +0.164 HD
BRANCH   4   7
ATOM      7  C   UNL     1       3.006 -19.331   3.946  1.00  0.00    +0.168 C 
ATOM      8  C   UNL     1       3.985 -20.409   4.394  1.00  0.00    +0.041 C 
BRANCH   7   9
ATOM      9  N   UNL     1       2.242 -18.809   5.082  1.00  0.00    -0.345 N 
ATOM     10  C   UNL     1       1.839 -17.494   5.135  1.00  0.00    +0.221 C 
ATOM     11  O   UNL     1       1.985 -16.706   4.208  1.00  0.00    -0.275 OA
ATOM     12  H   UNL     1       2.260 -19.349   5.940  1.00  0.00    +0.164 HD
BRANCH  10  13
ATOM     13  C   UNL     1       1.148 -17.136   6.435  1.00  0.00    +0.111 C 
BRANCH  13  14
ATOM     14  C   UNL     1       1.032 -15.627   6.615  1.00  0.00    +0.132 C 
BRANCH  14  15
ATOM     15  C   UNL     1      -0.373 -15.162   6.351  1.00  0.00    +0.303 C 
ATOM     16  O   UNL     1      -1.404 -15.683   6.741  1.00  0.00    -0.252 OA
BRANCH  15  17
ATOM     17  O   UNL     1      -0.408 -14.078   5.553  1.00  0.00    -0.481 OA
ATOM     18  H   UNL     1      -0.068 -13.354   6.119  1.00  0.00    +0.296 HD
ENDBRANCH  15  17
ENDBRANCH  14  15
ENDBRANCH  13  14
ENDBRANCH  10  13
ENDBRANCH   7   9
ENDBRANCH   4   7
ENDBRANCH   1   3
BRANCH   1  19
ATOM     19  C   UNL     1       0.972 -18.581  -0.008  1.00  0.00    +0.245 C 
ATOM     20  O   UNL     1       1.565 -19.340  -0.784  1.00  0.00    -0.272 OA
BRANCH  19  21
ATOM     21  N   UNL     1       0.941 -17.223  -0.221  1.00  0.00    -0.329 N 
ATOM     22  C   UNL     1       0.615 -16.517  -1.451  1.00  0.00    +0.120 C 
ATOM     23  C   UNL     1       1.355 -16.299   0.830  1.00  0.00    +0.174 C 
ATOM     24  C   UNL     1       0.953 -15.058  -1.170  1.00  0.00    +0.024 C 
ATOM     25  C   UNL     1       0.829 -14.948   0.347  1.00  0.00    +0.037 C 
BRANCH  23  26
ATOM     26  C   UNL     1       2.893 -16.257   0.976  1.00  0.00    +0.243 C 
ATOM     27  O   UNL     1       3.608 -17.257   0.936  1.00  0.00    -0.273 OA
ATOM     28  N   UNL     1       3.410 -14.979   1.100  1.00  0.00    -0.342 N 
ATOM     29  H   UNL     1       2.827 -14.223   0.757  1.00  0.00    +0.164 HD
BRANCH  28  30
ATOM     30  C   UNL     1       4.852 -14.759   0.968  1.00  0.00    +0.176 C 
BRANCH  30  31
ATOM     31  C   UNL     1       5.409 -14.072   2.223  1.00  0.00    +0.070 C 
BRANCH  31  32
ATOM     32  C   UNL     1       5.290 -14.919   3.469  1.00  0.00    -0.045 A 
ATOM     33  C   UNL     1       4.771 -14.378   4.652  1.00  0.00    +0.004 A 
ATOM     34  C   UNL     1       5.734 -16.249   3.464  1.00  0.00    +0.004 A 
ATOM     35  C   UNL     1       4.707 -15.150   5.814  1.00  0.00    +0.000 A 
ATOM     36  C   UNL     1       5.669 -17.019   4.627  1.00  0.00    +0.000 A 
ATOM     37  C   UNL     1       5.158 -16.468   5.800  1.00  0.00    +0.000 A 
ENDBRANCH  31  32
ENDBRANCH  30  31
BRANCH  30  38
ATOM     38  C   UNL     1       5.056 -13.865  -0.281  1.00  0.00    +0.247 C 
ATOM     39  O   UNL     1       5.847 -12.923  -0.252  1.00  0.00    -0.272 OA
ATOM     40  N   UNL     1       4.319 -14.278  -1.378  1.00  0.00    -0.324 N 
ATOM     41  H   UNL     1       3.752 -15.111  -1.254  1.00  0.00    +0.170 HD
BRANCH  40  42
ATOM     42  C   UNL     1       4.301 -13.715  -2.669  1.00  0.00    +0.041 A 
ATOM     43  C   UNL     1       3.453 -12.675  -3.059  1.00  0.00    +0.033 A 
ATOM     44  C   UNL     1       5.200 -14.249  -3.604  1.00  0.00    +0.033 A 
ATOM     45  C   UNL     1       3.498 -12.169  -4.363  1.00  0.00    +0.088 A 
ATOM     46  C   UNL     1       5.255 -13.751  -4.911  1.00  0.00    +0.088 A 
ATOM     47  C   UNL     1       4.401 -12.709  -5.286  1.00  0.00    +0.269 A 
BRANCH  47  48
ATOM     48  N   UNL     1       4.452 -12.179  -6.654  1.00  0.00    +0.062 N 
ATOM     49  O   UNL     1       4.959 -11.060  -6.818  1.00  0.00    -0.258 OA
ATOM     50  O   UNL     1       3.983 -12.880  -7.562  1.00  0.00    -0.258 OA
ENDBRANCH  47  48
ENDBRANCH  40  42
ENDBRANCH  30  38
ENDBRANCH  28  30
ENDBRANCH  23  26
ENDBRANCH  19  21
ENDBRANCH   1  19
TORSDOF 16
ENDMDL
MODEL 4
REMARK VINA RESULT:    -6.575     18.532     23.657
REMARK INTER + INTRA:         -16.835
REMARK INTER:                 -13.851
REMARK INTRA:                  -2.984
REMARK UNBOUND:                -4.303
REMARK SMILES C[C@H](NC(=O)CCC(=O)O)C(=O)N[C@@H](C)C(=O)N1CCC[C@@H]1C(=O)N[C@H](Cc1ccccc1)C(=O)Nc1ccc([N+](=O)[O-])cc1
REMARK SMILES IDX 14 1 15 2 13 3 11 4 12 5 2 7 1 8 3 9 4 10 5 11 6 13 7 14
REMARK SMILES IDX 8 15 9 16 10 17 16 19 17 20 18 21 19 22 22 23 20 24 21 25
REMARK SMILES IDX 23 26 24 27 25 28 26 30 27 31 28 32 29 33 33 34 30 35 32 36
REMARK SMILES IDX 31 37 34 38 35 39 36 40 37 42 38 43 45 44 39 45 44 46 40 47
REMARK SMILES IDX 41 48 42 49 43 50
REMARK H PARENT 13 6 3 12 10 18 25 29 36 41
ROOT
ATOM      1  C   UNL     1       4.299 -18.616 -18.019  1.00  0.00    +0.168 C 
ATOM      2  C   UNL     1       5.625 -18.023 -17.556  1.00  0.00    +0.041 C 
ENDROOT
BRANCH   1   3
ATOM      3  N   UNL     1       4.526 -19.770 -18.882  1.00  0.00    -0.343 N 
ATOM      4  C   UNL     1       4.672 -21.053 -18.403  1.00  0.00    +0.242 C 
ATOM      5  O   UNL     1       4.637 -21.316 -17.204  1.00  0.00    -0.273 OA
ATOM      6  H   UNL     1       4.398 -19.635 -19.883  1.00  0.00    +0.164 HD
BRANCH   4   7
ATOM      7  C   UNL     1       4.744 -22.122 -19.513  1.00  0.00    +0.168 C 
ATOM      8  C   UNL     1       5.377 -23.409 -19.002  1.00  0.00    +0.041 C 
BRANCH   7   9
ATOM      9  N   UNL     1       5.475 -21.598 -20.669  1.00  0.00    -0.345 N 
ATOM     10  C   UNL     1       5.006 -21.763 -21.952  1.00  0.00    +0.221 C 
ATOM     11  O   UNL     1       3.912 -22.247 -22.214  1.00  0.00    -0.275 OA
ATOM     12  H   UNL     1       6.452 -21.366 -20.532  1.00  0.00    +0.164 HD
BRANCH  10  13
ATOM     13  C   UNL     1       5.958 -21.233 -23.006  1.00  0.00    +0.111 C 
BRANCH  13  14
ATOM     14  C   UNL     1       5.626 -19.798 -23.396  1.00  0.00    +0.132 C 
BRANCH  14  15
ATOM     15  C   UNL     1       5.111 -19.027 -22.212  1.00  0.00    +0.303 C 
ATOM     16  O   UNL     1       5.772 -18.421 -21.387  1.00  0.00    -0.252 OA
BRANCH  15  17
ATOM     17  O   UNL     1       3.772 -19.107 -22.097  1.00  0.00    -0.481 OA
ATOM     18  H   UNL     1       3.451 -19.083 -23.023  1.00  0.00    +0.296 HD
ENDBRANCH  15  17
ENDBRANCH  14  15
ENDBRANCH  13  14
ENDBRANCH  10  13
ENDBRANCH   7   9
ENDBRANCH   4   7
ENDBRANCH   1   3
BRANCH   1  19
ATOM     19  C   UNL     1       3.508 -17.580 -18.844  1.00  0.00    +0.245 C 
ATOM     20  O   UNL     1       2.693 -17.949 -19.697  1.00  0.00    -0.272 OA
BRANCH  19  21
ATOM     21  N   UNL     1       3.763 -16.246 -18.630  1.00  0.00    -0.329 N 
ATOM     22  C   UNL     1       3.018 -15.314 -17.797  1.00  0.00    +0.120 C 
ATOM     23  C   UNL     1       4.839 -15.573 -19.350  1.00  0.00    +0.174 C 
ATOM     24  C   UNL     1       3.612 -13.946 -18.107  1.00  0.00    +0.024 C 
ATOM     25  C   UNL     1       5.027 -14.268 -18.578  1.00  0.00    +0.037 C 
BRANCH  23  26
ATOM     26  C   UNL     1       4.444 -15.279 -20.815  1.00  0.00    +0.243 C 
ATOM     27  O   UNL     1       3.361 -14.799 -21.145  1.00  0.00    -0.273 OA
ATOM     28  N   UNL     1       5.445 -15.552 -21.732  1.00  0.00    -0.342 N 
ATOM     29  H   UNL     1       6.391 -15.580 -21.369  1.00  0.00    +0.164 HD
BRANCH  28  30
ATOM     30  C   UNL     1       5.325 -15.069 -23.110  1.00  0.00    +0.176 C 
BRANCH  30  31
ATOM     31  C   UNL     1       4.201 -15.814 -23.845  1.00  0.00    +0.070 C 
BRANCH  31  32
ATOM     32  C   UNL     1       4.042 -15.384 -25.285  1.00  0.00    -0.045 A 
ATOM     33  C   UNL     1       4.170 -16.314 -26.325  1.00  0.00    +0.004 A 
ATOM     34  C   UNL     1       3.803 -14.038 -25.599  1.00  0.00    +0.004 A 
ATOM     35  C   UNL     1       4.071 -15.904 -27.656  1.00  0.00    +0.000 A 
ATOM     36  C   UNL     1       3.704 -13.631 -26.930  1.00  0.00    +0.000 A 
ATOM     37  C   UNL     1       3.840 -14.563 -27.957  1.00  0.00    +0.000 A 
ENDBRANCH  31  32
ENDBRANCH  30  31
BRANCH  30  38
ATOM     38  C   UNL     1       6.690 -15.324 -23.795  1.00  0.00    +0.247 C 
ATOM     39  O   UNL     1       7.303 -16.373 -23.593  1.00  0.00    -0.272 OA
ATOM     40  N   UNL     1       7.074 -14.306 -24.651  1.00  0.00    -0.324 N 
ATOM     41  H   UNL     1       6.427 -13.530 -24.749  1.00  0.00    +0.170 HD
BRANCH  40  42
ATOM     42  C   UNL     1       8.231 -14.241 -25.452  1.00  0.00    +0.041 A 
ATOM     43  C   UNL     1       9.495 -13.886 -24.974  1.00  0.00    +0.033 A 
ATOM     44  C   UNL     1       8.079 -14.556 -26.810  1.00  0.00    +0.033 A 
ATOM     45  C   UNL     1      10.598 -13.845 -25.835  1.00  0.00    +0.088 A 
ATOM     46  C   UNL     1       9.174 -14.520 -27.681  1.00  0.00    +0.088 A 
ATOM     47  C   UNL     1      10.433 -14.163 -27.187  1.00  0.00    +0.269 A 
BRANCH  47  48
ATOM     48  N   UNL     1      11.588 -14.124 -28.093  1.00  0.00    +0.062 N 
ATOM     49  O   UNL     1      11.520 -13.377 -29.080  1.00  0.00    -0.258 OA
ATOM     50  O   UNL     1      12.561 -14.841 -27.819  1.00  0.00    -0.258 OA
ENDBRANCH  47  48
ENDBRANCH  40  42
ENDBRANCH  30  38
ENDBRANCH  28  30
ENDBRANCH  23  26
ENDBRANCH  19  21
ENDBRANCH   1  19
TORSDOF 16
ENDMDL
MODEL 5
REMARK VINA RESULT:    -6.524      4.040      7.741
REMARK INTER + INTRA:         -16.739
REMARK INTER:                 -12.464
REMARK INTRA:                  -4.275
REMARK UNBOUND:                -4.303
REMARK SMILES C[C@H](NC(=O)CCC(=O)O)C(=O)N[C@@H](C)C(=O)N1CCC[C@@H]1C(=O)N[C@H](Cc1ccccc1)C(=O)Nc1ccc([N+](=O)[O-])cc1
REMARK SMILES IDX 14 1 15 2 13 3 11 4 12 5 2 7 1 8 3 9 4 10 5 11 6 13 7 14
REMARK SMILES IDX 8 15 9 16 10 17 16 19 17 20 18 21 19 22 22 23 20 24 21 25
REMARK SMILES IDX 23 26 24 27 25 28 26 30 27 31 28 32 29 33 33 34 30 35 32 36
REMARK SMILES IDX 31 37 34 38 35 39 36 40 37 42 38 43 45 44 39 45 44 46 40 47
REMARK SMILES IDX 41 48 42 49 43 50
REMARK H PARENT 13 6 3 12 10 18 25 29 36 41
ROOT
ATOM      1  C   UNL     1       3.620 -21.010   0.874  1.00  0.00    +0.168 C 
ATOM      2  C   UNL     1       4.577 -22.156   1.184  1.00  0.00    +0.041 C 
ENDROOT
BRANCH   1   3
ATOM      3  N   UNL     1       4.358 -19.835   0.423  1.00  0.00    -0.343 N 
ATOM      4  C   UNL     1       4.195 -19.273  -0.823  1.00  0.00    +0.242 C 
ATOM      5  O   UNL     1       3.423 -19.736  -1.658  1.00  0.00    -0.273 OA
ATOM      6  H   UNL     1       4.881 -19.317   1.127  1.00  0.00    +0.164 HD
BRANCH   4   7
ATOM      7  C   UNL     1       4.964 -17.948  -1.009  1.00  0.00    +0.168 C 
ATOM      8  C   UNL     1       5.873 -17.664   0.179  1.00  0.00    +0.041 C 
BRANCH   7   9
ATOM      9  N   UNL     1       4.022 -16.847  -1.228  1.00  0.00    -0.345 N 
ATOM     10  C   UNL     1       3.991 -16.151  -2.414  1.00  0.00    +0.221 C 
ATOM     11  O   UNL     1       4.652 -16.465  -3.397  1.00  0.00    -0.275 OA
ATOM     12  H   UNL     1       3.598 -16.431  -0.406  1.00  0.00    +0.164 HD
BRANCH  10  13
ATOM     13  C   UNL     1       3.015 -14.992  -2.399  1.00  0.00    +0.111 C 
BRANCH  13  14
ATOM     14  C   UNL     1       2.044 -15.088  -1.230  1.00  0.00    +0.132 C 
BRANCH  14  15
ATOM     15  C   UNL     1       1.073 -13.940  -1.244  1.00  0.00    +0.303 C 
ATOM     16  O   UNL     1      -0.095 -13.971  -1.591  1.00  0.00    -0.252 OA
BRANCH  15  17
ATOM     17  O   UNL     1       1.649 -12.783  -0.866  1.00  0.00    -0.481 OA
ATOM     18  H   UNL     1       2.173 -12.510  -1.648  1.00  0.00    +0.296 HD
ENDBRANCH  15  17
ENDBRANCH  14  15
ENDBRANCH  13  14
ENDBRANCH  10  13
ENDBRANCH   7   9
ENDBRANCH   4   7
ENDBRANCH   1   3
BRANCH   1  19
ATOM     19  C   UNL     1       2.844 -20.603   2.142  1.00  0.00    +0.245 C 
ATOM     20  O   UNL     1       3.248 -20.942   3.260  1.00  0.00    -0.272 OA
BRANCH  19  21
ATOM     21  N   UNL     1       1.678 -19.889   1.990  1.00  0.00    -0.329 N 
ATOM     22  C   UNL     1       0.704 -19.984   0.913  1.00  0.00    +0.120 C 
ATOM     23  C   UNL     1       1.335 -18.824   2.925  1.00  0.00    +0.174 C 
ATOM     24  C   UNL     1      -0.255 -18.823   1.144  1.00  0.00    +0.024 C 
ATOM     25  C   UNL     1      -0.144 -18.560   2.643  1.00  0.00    +0.037 C 
BRANCH  23  26
ATOM     26  C   UNL     1       2.168 -17.548   2.663  1.00  0.00    +0.243 C 
ATOM     27  O   UNL     1       2.616 -17.243   1.560  1.00  0.00    -0.273 OA
ATOM     28  N   UNL     1       2.322 -16.740   3.777  1.00  0.00    -0.342 N 
ATOM     29  H   UNL     1       1.637 -16.858   4.516  1.00  0.00    +0.164 HD
BRANCH  28  30
ATOM     30  C   UNL     1       2.839 -15.378   3.625  1.00  0.00    +0.176 C 
BRANCH  30  31
ATOM     31  C   UNL     1       4.365 -15.360   3.799  1.00  0.00    +0.070 C 
BRANCH  31  32
ATOM     32  C   UNL     1       5.096 -14.813   2.594  1.00  0.00    -0.045 A 
ATOM     33  C   UNL     1       4.389 -14.215   1.543  1.00  0.00    +0.004 A 
ATOM     34  C   UNL     1       6.490 -14.931   2.498  1.00  0.00    +0.004 A 
ATOM     35  C   UNL     1       5.062 -13.754   0.411  1.00  0.00    +0.000 A 
ATOM     36  C   UNL     1       7.160 -14.468   1.366  1.00  0.00    +0.000 A 
ATOM     37  C   UNL     1       6.447 -13.883   0.322  1.00  0.00    +0.000 A 
ENDBRANCH  31  32
ENDBRANCH  30  31
BRANCH  30  38
ATOM     38  C   UNL     1       2.155 -14.514   4.713  1.00  0.00    +0.247 C 
ATOM     39  O   UNL     1       2.793 -13.654   5.320  1.00  0.00    -0.272 OA
ATOM     40  N   UNL     1       0.805 -14.784   4.859  1.00  0.00    -0.324 N 
ATOM     41  H   UNL     1       0.415 -15.489   4.241  1.00  0.00    +0.170 HD
BRANCH  40  42
ATOM     42  C   UNL     1      -0.113 -14.158   5.725  1.00  0.00    +0.041 A 
ATOM     43  C   UNL     1      -0.407 -12.792   5.699  1.00  0.00    +0.033 A 
ATOM     44  C   UNL     1      -0.758 -14.977   6.664  1.00  0.00    +0.033 A 
ATOM     45  C   UNL     1      -1.335 -12.245   6.594  1.00  0.00    +0.088 A 
ATOM     46  C   UNL     1      -1.687 -14.442   7.563  1.00  0.00    +0.088 A 
ATOM     47  C   UNL     1      -1.972 -13.073   7.524  1.00  0.00    +0.269 A 
BRANCH  47  48
ATOM     48  N   UNL     1      -2.947 -12.504   8.463  1.00  0.00    +0.062 N 
ATOM     49  O   UNL     1      -2.597 -11.518   9.128  1.00  0.00    -0.258 OA
ATOM     50  O   UNL     1      -4.060 -13.043   8.537  1.00  0.00    -0.258 OA
ENDBRANCH  47  48
ENDBRANCH  40  42
ENDBRANCH  30  38
ENDBRANCH  28  30
ENDBRANCH  23  26
ENDBRANCH  19  21
ENDBRANCH   1  19
TORSDOF 16
ENDMDL
MODEL 6
REMARK VINA RESULT:    -6.505      2.842      7.700
REMARK INTER + INTRA:         -16.702
REMARK INTER:                 -14.553
REMARK INTRA:                  -2.149
REMARK UNBOUND:                -4.303
REMARK SMILES C[C@H](NC(=O)CCC(=O)O)C(=O)N[C@@H](C)C(=O)N1CCC[C@@H]1C(=O)N[C@H](Cc1ccccc1)C(=O)Nc1ccc([N+](=O)[O-])cc1
REMARK SMILES IDX 14 1 15 2 13 3 11 4 12 5 2 7 1 8 3 9 4 10 5 11 6 13 7 14
REMARK SMILES IDX 8 15 9 16 10 17 16 19 17 20 18 21 19 22 22 23 20 24 21 25
REMARK SMILES IDX 23 26 24 27 25 28 26 30 27 31 28 32 29 33 33 34 30 35 32 36
REMARK SMILES IDX 31 37 34 38 35 39 36 40 37 42 38 43 45 44 39 45 44 46 40 47
REMARK SMILES IDX 41 48 42 49 43 50
REMARK H PARENT 13 6 3 12 10 18 25 29 36 41
ROOT
ATOM      1  C   UNL     1       3.580 -15.383   1.821  1.00  0.00    +0.168 C 
ATOM      2  C   UNL     1       3.907 -14.289   2.832  1.00  0.00    +0.041 C 
ENDROOT
BRANCH   1   3
ATOM      3  N   UNL     1       3.059 -14.802   0.588  1.00  0.00    -0.343 N 
ATOM      4  C   UNL     1       3.604 -15.047  -0.652  1.00  0.00    +0.242 C 
ATOM      5  O   UNL     1       4.589 -15.763  -0.807  1.00  0.00    -0.273 OA
ATOM      6  H   UNL     1       2.152 -14.341   0.640  1.00  0.00    +0.164 HD
BRANCH   4   7
ATOM      7  C   UNL     1       2.786 -14.451  -1.815  1.00  0.00    +0.168 C 
ATOM      8  C   UNL     1       1.463 -15.183  -1.994  1.00  0.00    +0.041 C 
BRANCH   7   9
ATOM      9  N   UNL     1       3.575 -14.478  -3.050  1.00  0.00    -0.345 N 
ATOM     10  C   UNL     1       3.576 -13.418  -3.927  1.00  0.00    +0.221 C 
ATOM     11  O   UNL     1       3.025 -12.349  -3.694  1.00  0.00    -0.275 OA
ATOM     12  H   UNL     1       3.887 -15.384  -3.380  1.00  0.00    +0.164 HD
BRANCH  10  13
ATOM     13  C   UNL     1       4.377 -13.687  -5.185  1.00  0.00    +0.111 C 
BRANCH  13  14
ATOM     14  C   UNL     1       3.992 -12.737  -6.312  1.00  0.00    +0.132 C 
BRANCH  14  15
ATOM     15  C   UNL     1       5.040 -11.676  -6.501  1.00  0.00    +0.303 C 
ATOM     16  O   UNL     1       5.022 -10.761  -7.305  1.00  0.00    -0.252 OA
BRANCH  15  17
ATOM     17  O   UNL     1       6.100 -11.859  -5.689  1.00  0.00    -0.481 OA
ATOM     18  H   UNL     1       6.743 -12.349  -6.243  1.00  0.00    +0.296 HD
ENDBRANCH  15  17
ENDBRANCH  14  15
ENDBRANCH  13  14
ENDBRANCH  10  13
ENDBRANCH   7   9
ENDBRANCH   4   7
ENDBRANCH   1   3
BRANCH   1  19
ATOM     19  C   UNL     1       2.492 -16.321   2.379  1.00  0.00    +0.245 C 
ATOM     20  O   UNL     1       2.199 -16.295   3.581  1.00  0.00    -0.272 OA
BRANCH  19  21
ATOM     21  N   UNL     1       1.889 -17.206   1.516  1.00  0.00    -0.329 N 
ATOM     22  C   UNL     1       0.487 -17.264   1.130  1.00  0.00    +0.120 C 
ATOM     23  C   UNL     1       2.648 -18.308   0.937  1.00  0.00    +0.174 C 
ATOM     24  C   UNL     1       0.350 -18.558   0.337  1.00  0.00    +0.024 C 
ATOM     25  C   UNL     1       1.758 -18.797  -0.205  1.00  0.00    +0.037 C 
BRANCH  23  26
ATOM     26  C   UNL     1       2.877 -19.441   1.963  1.00  0.00    +0.243 C 
ATOM     27  O   UNL     1       2.005 -19.855   2.725  1.00  0.00    -0.273 OA
ATOM     28  N   UNL     1       4.144 -19.996   1.913  1.00  0.00    -0.342 N 
ATOM     29  H   UNL     1       4.656 -19.870   1.046  1.00  0.00    +0.164 HD
BRANCH  28  30
ATOM     30  C   UNL     1       4.422 -21.249   2.619  1.00  0.00    +0.176 C 
BRANCH  30  31
ATOM     31  C   UNL     1       5.198 -20.974   3.916  1.00  0.00    +0.070 C 
BRANCH  31  32
ATOM     32  C   UNL     1       5.211 -19.514   4.305  1.00  0.00    -0.045 A 
ATOM     33  C   UNL     1       6.008 -18.598   3.605  1.00  0.00    +0.004 A 
ATOM     34  C   UNL     1       4.455 -19.065   5.397  1.00  0.00    +0.004 A 
ATOM     35  C   UNL     1       6.055 -17.259   3.997  1.00  0.00    +0.000 A 
ATOM     36  C   UNL     1       4.504 -17.726   5.786  1.00  0.00    +0.000 A 
ATOM     37  C   UNL     1       5.305 -16.825   5.088  1.00  0.00    +0.000 A 
ENDBRANCH  31  32
ENDBRANCH  30  31
BRANCH  30  38
ATOM     38  C   UNL     1       5.257 -22.130   1.658  1.00  0.00    +0.247 C 
ATOM     39  O   UNL     1       5.534 -23.291   1.958  1.00  0.00    -0.272 OA
ATOM     40  N   UNL     1       5.579 -21.495   0.470  1.00  0.00    -0.324 N 
ATOM     41  H   UNL     1       5.226 -20.550   0.353  1.00  0.00    +0.170 HD
BRANCH  40  42
ATOM     42  C   UNL     1       6.290 -22.021  -0.626  1.00  0.00    +0.041 A 
ATOM     43  C   UNL     1       5.688 -22.504  -1.790  1.00  0.00    +0.033 A 
ATOM     44  C   UNL     1       7.688 -22.051  -0.518  1.00  0.00    +0.033 A 
ATOM     45  C   UNL     1       6.466 -23.011  -2.839  1.00  0.00    +0.088 A 
ATOM     46  C   UNL     1       8.477 -22.554  -1.558  1.00  0.00    +0.088 A 
ATOM     47  C   UNL     1       7.860 -23.034  -2.718  1.00  0.00    +0.269 A 
BRANCH  47  48
ATOM     48  N   UNL     1       8.679 -23.562  -3.816  1.00  0.00    +0.062 N 
ATOM     49  O   UNL     1       8.221 -24.508  -4.472  1.00  0.00    -0.258 OA
ATOM     50  O   UNL     1       9.781 -23.032  -4.020  1.00  0.00    -0.258 OA
ENDBRANCH  47  48
ENDBRANCH  40  42
ENDBRANCH  30  38
ENDBRANCH  28  30
ENDBRANCH  23  26
ENDBRANCH  19  21
ENDBRANCH   1  19
TORSDOF 16
ENDMDL
MODEL 7
REMARK VINA RESULT:    -6.343      3.359      8.797
REMARK INTER + INTRA:         -16.394
REMARK INTER:                 -13.931
REMARK INTRA:                  -2.464
REMARK UNBOUND:                -4.303
REMARK SMILES C[C@H](NC(=O)CCC(=O)O)C(=O)N[C@@H](C)C(=O)N1CCC[C@@H]1C(=O)N[C@H](Cc1ccccc1)C(=O)Nc1ccc([N+](=O)[O-])cc1
REMARK SMILES IDX 14 1 15 2 13 3 11 4 12 5 2 7 1 8 3 9 4 10 5 11 6 13 7 14
REMARK SMILES IDX 8 15 9 16 10 17 16 19 17 20 18 21 19 22 22 23 20 24 21 25
REMARK SMILES IDX 23 26 24 27 25 28 26 30 27 31 28 32 29 33 33 34 30 35 32 36
REMARK SMILES IDX 31 37 34 38 35 39 36 40 37 42 38 43 45 44 39 45 44 46 40 47
REMARK SMILES IDX 41 48 42 49 43 50
REMARK H PARENT 13 6 3 12 10 18 25 29 36 41
ROOT
ATOM      1  C   UNL     1       4.784 -18.028  -0.384  1.00  0.00    +0.168 C 
ATOM      2  C   UNL     1       4.258 -19.085  -1.349  1.00  0.00    +0.041 C 
ENDROOT
BRANCH   1   3
ATOM      3  N   UNL     1       5.450 -16.954  -1.112  1.00  0.00    -0.343 N 
ATOM      4  C   UNL     1       5.500 -15.653  -0.662  1.00  0.00    +0.242 C 
ATOM      5  O   UNL     1       4.967 -15.299   0.385  1.00  0.00    -0.273 OA
ATOM      6  H   UNL     1       6.045 -17.222  -1.894  1.00  0.00    +0.164 HD
BRANCH   4   7
ATOM      7  C   UNL     1       6.392 -14.736  -1.523  1.00  0.00    +0.168 C 
ATOM      8  C   UNL     1       7.478 -14.075  -0.684  1.00  0.00    +0.041 C 
BRANCH   7   9
ATOM      9  N   UNL     1       5.571 -13.733  -2.207  1.00  0.00    -0.345 N 
ATOM     10  C   UNL     1       4.894 -14.028  -3.367  1.00  0.00    +0.221 C 
ATOM     11  O   UNL     1       4.833 -15.155  -3.845  1.00  0.00    -0.275 OA
ATOM     12  H   UNL     1       5.735 -12.761  -1.971  1.00  0.00    +0.164 HD
BRANCH  10  13
ATOM     13  C   UNL     1       4.185 -12.829  -3.964  1.00  0.00    +0.111 C 
BRANCH  13  14
ATOM     14  C   UNL     1       3.608 -13.142  -5.339  1.00  0.00    +0.132 C 
BRANCH  14  15
ATOM     15  C   UNL     1       4.296 -12.335  -6.405  1.00  0.00    +0.303 C 
ATOM     16  O   UNL     1       5.139 -11.471  -6.241  1.00  0.00    -0.252 OA
BRANCH  15  17
ATOM     17  O   UNL     1       3.839 -12.628  -7.637  1.00  0.00    -0.481 OA
ATOM     18  H   UNL     1       4.598 -12.435  -8.226  1.00  0.00    +0.296 HD
ENDBRANCH  15  17
ENDBRANCH  14  15
ENDBRANCH  13  14
ENDBRANCH  10  13
ENDBRANCH   7   9
ENDBRANCH   4   7
ENDBRANCH   1   3
BRANCH   1  19
ATOM     19  C   UNL     1       5.825 -18.645   0.571  1.00  0.00    +0.245 C 
ATOM     20  O   UNL     1       6.950 -18.951   0.157  1.00  0.00    -0.272 OA
BRANCH  19  21
ATOM     21  N   UNL     1       5.456 -18.878   1.875  1.00  0.00    -0.329 N 
ATOM     22  C   UNL     1       6.030 -19.833   2.811  1.00  0.00    +0.120 C 
ATOM     23  C   UNL     1       4.302 -18.196   2.450  1.00  0.00    +0.174 C 
ATOM     24  C   UNL     1       5.098 -19.813   4.016  1.00  0.00    +0.024 C 
ATOM     25  C   UNL     1       4.460 -18.428   3.953  1.00  0.00    +0.037 C 
BRANCH  23  26
ATOM     26  C   UNL     1       2.973 -18.805   1.948  1.00  0.00    +0.243 C 
ATOM     27  O   UNL     1       2.798 -20.011   1.782  1.00  0.00    -0.273 OA
ATOM     28  N   UNL     1       1.967 -17.874   1.753  1.00  0.00    -0.342 N 
ATOM     29  H   UNL     1       2.064 -16.996   2.251  1.00  0.00    +0.164 HD
BRANCH  28  30
ATOM     30  C   UNL     1       0.587 -18.322   1.551  1.00  0.00    +0.176 C 
BRANCH  30  31
ATOM     31  C   UNL     1      -0.264 -17.188   0.960  1.00  0.00    +0.070 C 
BRANCH  31  32
ATOM     32  C   UNL     1       0.536 -16.214   0.127  1.00  0.00    -0.045 A 
ATOM     33  C   UNL     1       0.591 -14.858   0.475  1.00  0.00    +0.004 A 
ATOM     34  C   UNL     1       1.202 -16.650  -1.027  1.00  0.00    +0.004 A 
ATOM     35  C   UNL     1       1.292 -13.952  -0.324  1.00  0.00    +0.000 A 
ATOM     36  C   UNL     1       1.902 -15.743  -1.823  1.00  0.00    +0.000 A 
ATOM     37  C   UNL     1       1.944 -14.395  -1.473  1.00  0.00    +0.000 A 
ENDBRANCH  31  32
ENDBRANCH  30  31
BRANCH  30  38
ATOM     38  C   UNL     1       0.046 -18.747   2.939  1.00  0.00    +0.247 C 
ATOM     39  O   UNL     1      -0.055 -17.922   3.848  1.00  0.00    -0.272 OA
ATOM     40  N   UNL     1      -0.335 -20.076   2.996  1.00  0.00    -0.324 N 
ATOM     41  H   UNL     1      -0.239 -20.611   2.139  1.00  0.00    +0.170 HD
BRANCH  40  42
ATOM     42  C   UNL     1      -0.898 -20.767   4.087  1.00  0.00    +0.041 A 
ATOM     43  C   UNL     1      -2.271 -20.931   4.286  1.00  0.00    +0.033 A 
ATOM     44  C   UNL     1      -0.004 -21.316   5.018  1.00  0.00    +0.033 A 
ATOM     45  C   UNL     1      -2.753 -21.634   5.397  1.00  0.00    +0.088 A 
ATOM     46  C   UNL     1      -0.472 -22.022   6.132  1.00  0.00    +0.088 A 
ATOM     47  C   UNL     1      -1.850 -22.178   6.317  1.00  0.00    +0.269 A 
BRANCH  47  48
ATOM     48  N   UNL     1      -2.351 -22.919   7.482  1.00  0.00    +0.062 N 
ATOM     49  O   UNL     1      -1.988 -22.538   8.604  1.00  0.00    -0.258 OA
ATOM     50  O   UNL     1      -3.103 -23.881   7.274  1.00  0.00    -0.258 OA
ENDBRANCH  47  48
ENDBRANCH  40  42
ENDBRANCH  30  38
ENDBRANCH  28  30
ENDBRANCH  23  26
ENDBRANCH  19  21
ENDBRANCH   1  19
TORSDOF 16
ENDMDL
MODEL 8
REMARK VINA RESULT:    -6.312      2.748      5.763
REMARK INTER + INTRA:         -16.335
REMARK INTER:                 -14.646
REMARK INTRA:                  -1.689
REMARK UNBOUND:                -4.303
REMARK SMILES C[C@H](NC(=O)CCC(=O)O)C(=O)N[C@@H](C)C(=O)N1CCC[C@@H]1C(=O)N[C@H](Cc1ccccc1)C(=O)Nc1ccc([N+](=O)[O-])cc1
REMARK SMILES IDX 14 1 15 2 13 3 11 4 12 5 2 7 1 8 3 9 4 10 5 11 6 13 7 14
REMARK SMILES IDX 8 15 9 16 10 17 16 19 17 20 18 21 19 22 22 23 20 24 21 25
REMARK SMILES IDX 23 26 24 27 25 28 26 30 27 31 28 32 29 33 33 34 30 35 32 36
REMARK SMILES IDX 31 37 34 38 35 39 36 40 37 42 38 43 45 44 39 45 44 46 40 47
REMARK SMILES IDX 41 48 42 49 43 50
REMARK H PARENT 13 6 3 12 10 18 25 29 36 41
ROOT
ATOM      1  C   UNL     1       5.698 -16.728   2.227  1.00  0.00    +0.168 C 
ATOM      2  C   UNL     1       4.255 -16.282   2.438  1.00  0.00    +0.041 C 
ENDROOT
BRANCH   1   3
ATOM      3  N   UNL     1       6.159 -16.357   0.894  1.00  0.00    -0.343 N 
ATOM      4  C   UNL     1       6.683 -15.119   0.593  1.00  0.00    +0.242 C 
ATOM      5  O   UNL     1       6.784 -14.227   1.430  1.00  0.00    -0.273 OA
ATOM      6  H   UNL     1       6.253 -17.105   0.210  1.00  0.00    +0.164 HD
BRANCH   4   7
ATOM      7  C   UNL     1       7.246 -15.018  -0.839  1.00  0.00    +0.168 C 
ATOM      8  C   UNL     1       7.836 -13.640  -1.106  1.00  0.00    +0.041 C 
BRANCH   7   9
ATOM      9  N   UNL     1       6.201 -15.342  -1.814  1.00  0.00    -0.345 N 
ATOM     10  C   UNL     1       5.151 -14.486  -2.055  1.00  0.00    +0.221 C 
ATOM     11  O   UNL     1       5.072 -13.363  -1.571  1.00  0.00    -0.275 OA
ATOM     12  H   UNL     1       6.113 -16.312  -2.093  1.00  0.00    +0.164 HD
BRANCH  10  13
ATOM     13  C   UNL     1       4.132 -15.051  -3.024  1.00  0.00    +0.111 C 
BRANCH  13  14
ATOM     14  C   UNL     1       4.446 -14.661  -4.463  1.00  0.00    +0.132 C 
BRANCH  14  15
ATOM     15  C   UNL     1       3.926 -13.284  -4.770  1.00  0.00    +0.303 C 
ATOM     16  O   UNL     1       2.796 -12.986  -5.113  1.00  0.00    -0.252 OA
BRANCH  15  17
ATOM     17  O   UNL     1       4.889 -12.347  -4.679  1.00  0.00    -0.481 OA
ATOM     18  H   UNL     1       4.651 -11.837  -3.876  1.00  0.00    +0.296 HD
ENDBRANCH  15  17
ENDBRANCH  14  15
ENDBRANCH  13  14
ENDBRANCH  10  13
ENDBRANCH   7   9
ENDBRANCH   4   7
ENDBRANCH   1   3
BRANCH   1  19
ATOM     19  C   UNL     1       5.806 -18.262   2.336  1.00  0.00    +0.245 C 
ATOM     20  O   UNL     1       6.537 -18.779   3.189  1.00  0.00    -0.272 OA
BRANCH  19  21
ATOM     21  N   UNL     1       5.100 -19.030   1.439  1.00  0.00    -0.329 N 
ATOM     22  C   UNL     1       4.757 -18.708   0.062  1.00  0.00    +0.120 C 
ATOM     23  C   UNL     1       4.509 -20.297   1.854  1.00  0.00    +0.174 C 
ATOM     24  C   UNL     1       3.797 -19.809  -0.373  1.00  0.00    +0.024 C 
ATOM     25  C   UNL     1       4.165 -20.982   0.532  1.00  0.00    +0.037 C 
BRANCH  23  26
ATOM     26  C   UNL     1       3.232 -20.079   2.696  1.00  0.00    +0.243 C 
ATOM     27  O   UNL     1       3.241 -19.654   3.850  1.00  0.00    -0.273 OA
ATOM     28  N   UNL     1       2.058 -20.352   2.015  1.00  0.00    -0.342 N 
ATOM     29  H   UNL     1       2.110 -20.330   1.002  1.00  0.00    +0.164 HD
BRANCH  28  30
ATOM     30  C   UNL     1       0.772 -19.932   2.577  1.00  0.00    +0.176 C 
BRANCH  30  31
ATOM     31  C   UNL     1      -0.223 -21.102   2.578  1.00  0.00    +0.070 C 
BRANCH  31  32
ATOM     32  C   UNL     1      -1.117 -21.123   3.796  1.00  0.00    -0.045 A 
ATOM     33  C   UNL     1      -2.497 -20.916   3.670  1.00  0.00    +0.004 A 
ATOM     34  C   UNL     1      -0.570 -21.313   5.073  1.00  0.00    +0.004 A 
ATOM     35  C   UNL     1      -3.313 -20.888   4.803  1.00  0.00    +0.000 A 
ATOM     36  C   UNL     1      -1.388 -21.285   6.203  1.00  0.00    +0.000 A 
ATOM     37  C   UNL     1      -2.758 -21.070   6.067  1.00  0.00    +0.000 A 
ENDBRANCH  31  32
ENDBRANCH  30  31
BRANCH  30  38
ATOM     38  C   UNL     1       0.253 -18.772   1.692  1.00  0.00    +0.247 C 
ATOM     39  O   UNL     1      -0.954 -18.632   1.492  1.00  0.00    -0.272 OA
ATOM     40  N   UNL     1       1.258 -17.938   1.234  1.00  0.00    -0.324 N 
ATOM     41  H   UNL     1       2.202 -18.160   1.535  1.00  0.00    +0.170 HD
BRANCH  40  42
ATOM     42  C   UNL     1       1.127 -16.779   0.444  1.00  0.00    +0.041 A 
ATOM     43  C   UNL     1       1.237 -16.764  -0.949  1.00  0.00    +0.033 A 
ATOM     44  C   UNL     1       0.870 -15.578   1.121  1.00  0.00    +0.033 A 
ATOM     45  C   UNL     1       1.092 -15.568  -1.663  1.00  0.00    +0.088 A 
ATOM     46  C   UNL     1       0.722 -14.376   0.419  1.00  0.00    +0.088 A 
ATOM     47  C   UNL     1       0.835 -14.377  -0.976  1.00  0.00    +0.269 A 
BRANCH  47  48
ATOM     48  N   UNL     1       0.680 -13.122  -1.721  1.00  0.00    +0.062 N 
ATOM     49  O   UNL     1       1.711 -12.522  -2.057  1.00  0.00    -0.258 OA
ATOM     50  O   UNL     1      -0.472 -12.736  -1.968  1.00  0.00    -0.258 OA
ENDBRANCH  47  48
ENDBRANCH  40  42
ENDBRANCH  30  38
ENDBRANCH  28  30
ENDBRANCH  23  26
ENDBRANCH  19  21
ENDBRANCH   1  19
TORSDOF 16
ENDMDL
MODEL 9
REMARK VINA RESULT:    -6.269     18.764     24.462
REMARK INTER + INTRA:         -16.253
REMARK INTER:                 -14.180
REMARK INTRA:                  -2.074
REMARK UNBOUND:                -4.303
REMARK SMILES C[C@H](NC(=O)CCC(=O)O)C(=O)N[C@@H](C)C(=O)N1CCC[C@@H]1C(=O)N[C@H](Cc1ccccc1)C(=O)Nc1ccc([N+](=O)[O-])cc1
REMARK SMILES IDX 14 1 15 2 13 3 11 4 12 5 2 7 1 8 3 9 4 10 5 11 6 13 7 14
REMARK SMILES IDX 8 15 9 16 10 17 16 19 17 20 18 21 19 22 22 23 20 24 21 25
REMARK SMILES IDX 23 26 24 27 25 28 26 30 27 31 28 32 29 33 33 34 30 35 32 36
REMARK SMILES IDX 31 37 34 38 35 39 36 40 37 42 38 43 45 44 39 45 44 46 40 47
REMARK SMILES IDX 41 48 42 49 43 50
REMARK H PARENT 13 6 3 12 10 18 25 29 36 41
ROOT
ATOM      1  C   UNL     1       2.990 -16.146 -18.934  1.00  0.00    +0.168 C 
ATOM      2  C   UNL     1       3.281 -15.712 -17.501  1.00  0.00    +0.041 C 
ENDROOT
BRANCH   1   3
ATOM      3  N   UNL     1       3.979 -17.116 -19.387  1.00  0.00    -0.343 N 
ATOM      4  C   UNL     1       3.716 -18.076 -20.339  1.00  0.00    +0.242 C 
ATOM      5  O   UNL     1       2.613 -18.193 -20.866  1.00  0.00    -0.273 OA
ATOM      6  H   UNL     1       4.946 -16.959 -19.109  1.00  0.00    +0.164 HD
BRANCH   4   7
ATOM      7  C   UNL     1       4.960 -18.881 -20.767  1.00  0.00    +0.168 C 
ATOM      8  C   UNL     1       5.068 -18.968 -22.283  1.00  0.00    +0.041 C 
BRANCH   7   9
ATOM      9  N   UNL     1       4.927 -20.215 -20.163  1.00  0.00    -0.345 N 
ATOM     10  C   UNL     1       5.300 -20.423 -18.855  1.00  0.00    +0.221 C 
ATOM     11  O   UNL     1       5.571 -19.514 -18.079  1.00  0.00    -0.275 OA
ATOM     12  H   UNL     1       4.897 -21.008 -20.793  1.00  0.00    +0.164 HD
BRANCH  10  13
ATOM     13  C   UNL     1       5.286 -21.885 -18.457  1.00  0.00    +0.111 C 
BRANCH  13  14
ATOM     14  C   UNL     1       5.179 -22.799 -19.671  1.00  0.00    +0.132 C 
BRANCH  14  15
ATOM     15  C   UNL     1       3.780 -23.330 -19.819  1.00  0.00    +0.303 C 
ATOM     16  O   UNL     1       2.751 -22.680 -19.885  1.00  0.00    -0.252 OA
BRANCH  15  17
ATOM     17  O   UNL     1       3.746 -24.676 -19.824  1.00  0.00    -0.481 OA
ATOM     18  H   UNL     1       3.198 -24.904 -19.043  1.00  0.00    +0.296 HD
ENDBRANCH  15  17
ENDBRANCH  14  15
ENDBRANCH  13  14
ENDBRANCH  10  13
ENDBRANCH   7   9
ENDBRANCH   4   7
ENDBRANCH   1   3
BRANCH   1  19
ATOM     19  C   UNL     1       3.069 -14.935 -19.885  1.00  0.00    +0.245 C 
ATOM     20  O   UNL     1       2.092 -14.613 -20.572  1.00  0.00    -0.272 OA
BRANCH  19  21
ATOM     21  N   UNL     1       4.261 -14.255 -19.976  1.00  0.00    -0.329 N 
ATOM     22  C   UNL     1       4.675 -13.072 -19.237  1.00  0.00    +0.120 C 
ATOM     23  C   UNL     1       5.259 -14.640 -20.967  1.00  0.00    +0.174 C 
ATOM     24  C   UNL     1       5.978 -12.633 -19.892  1.00  0.00    +0.024 C 
ATOM     25  C   UNL     1       6.525 -13.921 -20.500  1.00  0.00    +0.037 C 
BRANCH  23  26
ATOM     26  C   UNL     1       4.864 -14.166 -22.384  1.00  0.00    +0.243 C 
ATOM     27  O   UNL     1       4.260 -13.119 -22.608  1.00  0.00    -0.273 OA
ATOM     28  N   UNL     1       5.301 -15.002 -23.398  1.00  0.00    -0.342 N 
ATOM     29  H   UNL     1       6.081 -15.611 -23.173  1.00  0.00    +0.164 HD
BRANCH  28  30
ATOM     30  C   UNL     1       5.249 -14.551 -24.791  1.00  0.00    +0.176 C 
BRANCH  30  31
ATOM     31  C   UNL     1       3.971 -15.061 -25.473  1.00  0.00    +0.070 C 
BRANCH  31  32
ATOM     32  C   UNL     1       3.703 -14.400 -26.806  1.00  0.00    -0.045 A 
ATOM     33  C   UNL     1       3.497 -15.174 -27.956  1.00  0.00    +0.004 A 
ATOM     34  C   UNL     1       3.696 -13.002 -26.914  1.00  0.00    +0.004 A 
ATOM     35  C   UNL     1       3.298 -14.560 -29.193  1.00  0.00    +0.000 A 
ATOM     36  C   UNL     1       3.496 -12.392 -28.152  1.00  0.00    +0.000 A 
ATOM     37  C   UNL     1       3.300 -13.170 -29.291  1.00  0.00    +0.000 A 
ENDBRANCH  31  32
ENDBRANCH  30  31
BRANCH  30  38
ATOM     38  C   UNL     1       6.508 -15.118 -25.493  1.00  0.00    +0.247 C 
ATOM     39  O   UNL     1       6.550 -16.299 -25.840  1.00  0.00    -0.272 OA
ATOM     40  N   UNL     1       7.489 -14.167 -25.712  1.00  0.00    -0.324 N 
ATOM     41  H   UNL     1       7.277 -13.220 -25.413  1.00  0.00    +0.170 HD
BRANCH  40  42
ATOM     42  C   UNL     1       8.731 -14.339 -26.355  1.00  0.00    +0.041 A 
ATOM     43  C   UNL     1       8.952 -14.088 -27.712  1.00  0.00    +0.033 A 
ATOM     44  C   UNL     1       9.797 -14.791 -25.563  1.00  0.00    +0.033 A 
ATOM     45  C   UNL     1      10.218 -14.283 -28.277  1.00  0.00    +0.088 A 
ATOM     46  C   UNL     1      11.067 -14.989 -26.115  1.00  0.00    +0.088 A 
ATOM     47  C   UNL     1      11.273 -14.732 -27.475  1.00  0.00    +0.269 A 
BRANCH  47  48
ATOM     48  N   UNL     1      12.603 -14.935 -28.063  1.00  0.00    +0.062 N 
ATOM     49  O   UNL     1      12.769 -15.932 -28.780  1.00  0.00    -0.258 OA
ATOM     50  O   UNL     1      13.481 -14.100 -27.805  1.00  0.00    -0.258 OA
ENDBRANCH  47  48
ENDBRANCH  40  42
ENDBRANCH  30  38
ENDBRANCH  28  30
ENDBRANCH  23  26
ENDBRANCH  19  21
ENDBRANCH   1  19
TORSDOF 16
ENDMDL
