MODEL 1
REMARK VINA RESULT:    -6.739      0.000      0.000
REMARK INTER + INTRA:         -11.016
REMARK INTER:                  -9.890
REMARK INTRA:                  -1.126
REMARK UNBOUND:                -1.126
REMARK SMILES O=C(O)[C@@H]1O[C@@H](O[C@H]2[C@H](O)[C@@H](O)[C@@H](O)O[C@H]2C(=O)O)[C@H](O)[C@@H](O)[C@@H]1O
REMARK SMILES IDX 7 1 6 2 22 3 24 4 20 5 4 6 5 7 23 8 25 10 21 12 2 14 1 15
REMARK SMILES IDX 3 16 8 18 9 19 16 20 11 21 15 22 13 23 10 24 17 26 18 27
REMARK SMILES IDX 19 28 12 30 14 32
REMARK H PARENT 23 9 25 11 21 13 3 17 10 25 19 29 12 31 14 33
ROOT
ATOM      1  O   UNL     1       1.025   8.119 -10.855  1.00  0.00    -0.340 OA
ENDROOT
BRANCH   1   2
ATOM      2  C   UNL     1       1.994   7.201 -11.355  1.00  0.00    +0.283 C 
ATOM      3  C   UNL     1       4.468   7.342 -11.841  1.00  0.00    +0.180 C 
ATOM      4  C   UNL     1       4.791   7.187 -10.344  1.00  0.00    +0.186 C 
ATOM      5  C   UNL     1       3.115   8.014 -12.064  1.00  0.00    +0.202 C 
ATOM      6  C   UNL     1       3.498   7.066  -9.525  1.00  0.00    +0.262 C 
ATOM      7  O   UNL     1       2.509   6.381 -10.306  1.00  0.00    -0.332 OA
BRANCH   3   8
ATOM      8  O   UNL     1       5.517   8.090 -12.474  1.00  0.00    -0.387 OA
ATOM      9  H   UNL     1       5.099   8.899 -12.831  1.00  0.00    +0.211 HD
ENDBRANCH   3   8
BRANCH   4  10
ATOM     10  O   UNL     1       5.619   6.020 -10.226  1.00  0.00    -0.387 OA
ATOM     11  H   UNL     1       6.309   6.109 -10.912  1.00  0.00    +0.211 HD
ENDBRANCH   4  10
BRANCH   5  12
ATOM     12  O   UNL     1       2.885   8.144 -13.479  1.00  0.00    -0.385 OA
ATOM     13  H   UNL     1       2.420   7.346 -13.790  1.00  0.00    +0.211 HD
ENDBRANCH   5  12
BRANCH   6  14
ATOM     14  C   UNL     1       3.751   6.414  -8.170  1.00  0.00    +0.335 C 
ATOM     15  O   UNL     1       4.776   6.496  -7.511  1.00  0.00    -0.249 OA
BRANCH  14  16
ATOM     16  O   UNL     1       2.681   5.746  -7.682  1.00  0.00    -0.479 OA
ATOM     17  H   UNL     1       3.071   5.128  -7.029  1.00  0.00    +0.296 HD
ENDBRANCH  14  16
ENDBRANCH   6  14
ENDBRANCH   1   2
BRANCH   1  18
ATOM     18  C   UNL     1      -0.288   8.008 -11.422  1.00  0.00    +0.193 C 
ATOM     19  C   UNL     1      -0.457   6.868 -12.451  1.00  0.00    +0.180 C 
ATOM     20  C   UNL     1      -1.320   7.844 -10.294  1.00  0.00    +0.262 C 
ATOM     21  C   UNL     1      -1.925   6.442 -12.598  1.00  0.00    +0.201 C 
ATOM     22  O   UNL     1      -2.657   7.994 -10.784  1.00  0.00    -0.332 OA
ATOM     23  C   UNL     1      -2.880   7.550 -12.115  1.00  0.00    +0.279 C 
BRANCH  19  24
ATOM     24  O   UNL     1       0.000   7.336 -13.731  1.00  0.00    -0.387 OA
ATOM     25  H   UNL     1       0.932   7.618 -13.591  1.00  0.00    +0.211 HD
ENDBRANCH  19  24
BRANCH  20  26
ATOM     26  C   UNL     1      -1.104   6.555  -9.482  1.00  0.00    +0.335 C 
ATOM     27  O   UNL     1      -0.047   6.116  -9.056  1.00  0.00    -0.249 OA
BRANCH  26  28
ATOM     28  O   UNL     1      -2.258   5.908  -9.206  1.00  0.00    -0.479 OA
ATOM     29  H   UNL     1      -2.766   5.969 -10.041  1.00  0.00    +0.296 HD
ENDBRANCH  26  28
ENDBRANCH  20  26
BRANCH  21  30
ATOM     30  O   UNL     1      -2.164   5.251 -11.823  1.00  0.00    -0.385 OA
ATOM     31  H   UNL     1      -3.128   5.092 -11.904  1.00  0.00    +0.211 HD
ENDBRANCH  21  30
BRANCH  23  32
ATOM     32  O   UNL     1      -4.203   7.026 -12.152  1.00  0.00    -0.366 OA
ATOM     33  H   UNL     1      -4.425   7.000 -13.099  1.00  0.00    +0.213 HD
ENDBRANCH  23  32
ENDBRANCH   1  18
TORSDOF 12
ENDMDL
MODEL 2
REMARK VINA RESULT:    -6.714      1.970      4.351
REMARK INTER + INTRA:         -10.980
REMARK INTER:                  -9.556
REMARK INTRA:                  -1.424
REMARK UNBOUND:                -1.126
REMARK SMILES O=C(O)[C@@H]1O[C@@H](O[C@H]2[C@H](O)[C@@H](O)[C@@H](O)O[C@H]2C(=O)O)[C@H](O)[C@@H](O)[C@@H]1O
REMARK SMILES IDX 7 1 6 2 22 3 24 4 20 5 4 6 5 7 23 8 25 10 21 12 2 14 1 15
REMARK SMILES IDX 3 16 8 18 9 19 16 20 11 21 15 22 13 23 10 24 17 26 18 27
REMARK SMILES IDX 19 28 12 30 14 32
REMARK H PARENT 23 9 25 11 21 13 3 17 10 25 19 29 12 31 14 33
ROOT
ATOM      1  O   UNL     1       2.383   8.306 -12.081  1.00  0.00    -0.340 OA
ENDROOT
BRANCH   1   2
ATOM      2  C   UNL     1       2.880   7.164 -11.386  1.00  0.00    +0.283 C 
ATOM      3  C   UNL     1       4.043   6.818  -9.171  1.00  0.00    +0.180 C 
ATOM      4  C   UNL     1       2.704   6.947  -8.425  1.00  0.00    +0.186 C 
ATOM      5  C   UNL     1       4.050   7.623 -10.470  1.00  0.00    +0.202 C 
ATOM      6  C   UNL     1       1.559   7.206  -9.416  1.00  0.00    +0.262 C 
ATOM      7  O   UNL     1       1.839   6.525 -10.646  1.00  0.00    -0.332 OA
BRANCH   3   8
ATOM      8  O   UNL     1       5.107   7.241  -8.306  1.00  0.00    -0.387 OA
ATOM      9  H   UNL     1       5.853   7.486  -8.890  1.00  0.00    +0.211 HD
ENDBRANCH   3   8
BRANCH   4  10
ATOM     10  O   UNL     1       2.524   5.723  -7.698  1.00  0.00    -0.387 OA
ATOM     11  H   UNL     1       1.754   5.867  -7.113  1.00  0.00    +0.211 HD
ENDBRANCH   4  10
BRANCH   5  12
ATOM     12  O   UNL     1       5.333   7.473 -11.105  1.00  0.00    -0.385 OA
ATOM     13  H   UNL     1       5.713   8.360 -11.246  1.00  0.00    +0.211 HD
ENDBRANCH   5  12
BRANCH   6  14
ATOM     14  C   UNL     1       0.206   6.837  -8.818  1.00  0.00    +0.335 C 
ATOM     15  O   UNL     1      -0.328   5.738  -8.864  1.00  0.00    -0.249 OA
BRANCH  14  16
ATOM     16  O   UNL     1      -0.381   7.848  -8.139  1.00  0.00    -0.479 OA
ATOM     17  H   UNL     1       0.285   8.567  -8.170  1.00  0.00    +0.296 HD
ENDBRANCH  14  16
ENDBRANCH   6  14
ENDBRANCH   1   2
BRANCH   1  18
ATOM     18  C   UNL     1       1.246   8.075 -12.924  1.00  0.00    +0.193 C 
ATOM     19  C   UNL     1       0.138   9.148 -12.830  1.00  0.00    +0.180 C 
ATOM     20  C   UNL     1       1.711   7.938 -14.382  1.00  0.00    +0.262 C 
ATOM     21  C   UNL     1      -0.745   9.172 -14.086  1.00  0.00    +0.201 C 
ATOM     22  O   UNL     1       0.660   7.448 -15.222  1.00  0.00    -0.332 OA
ATOM     23  C   UNL     1      -0.656   7.842 -14.857  1.00  0.00    +0.279 C 
BRANCH  19  24
ATOM     24  O   UNL     1      -0.700   8.842 -11.703  1.00  0.00    -0.387 OA
ATOM     25  H   UNL     1      -1.053   7.940 -11.874  1.00  0.00    +0.211 HD
ENDBRANCH  19  24
BRANCH  20  26
ATOM     26  C   UNL     1       2.371   9.223 -14.913  1.00  0.00    +0.335 C 
ATOM     27  O   UNL     1       2.140   9.795 -15.968  1.00  0.00    -0.249 OA
BRANCH  26  28
ATOM     28  O   UNL     1       3.264   9.752 -14.046  1.00  0.00    -0.479 OA
ATOM     29  H   UNL     1       3.545   8.986 -13.504  1.00  0.00    +0.296 HD
ENDBRANCH  26  28
ENDBRANCH  20  26
BRANCH  21  30
ATOM     30  O   UNL     1      -0.324  10.243 -14.954  1.00  0.00    -0.385 OA
ATOM     31  H   UNL     1      -0.958  10.219 -15.701  1.00  0.00    +0.211 HD
ENDBRANCH  21  30
BRANCH  23  32
ATOM     32  O   UNL     1      -1.385   7.996 -16.070  1.00  0.00    -0.366 OA
ATOM     33  H   UNL     1      -1.707   7.100 -16.273  1.00  0.00    +0.213 HD
ENDBRANCH  23  32
ENDBRANCH   1  18
TORSDOF 12
ENDMDL
MODEL 3
REMARK VINA RESULT:    -6.460     19.386     22.019
REMARK INTER + INTRA:         -10.607
REMARK INTER:                  -9.085
REMARK INTRA:                  -1.522
REMARK UNBOUND:                -1.126
REMARK SMILES O=C(O)[C@@H]1O[C@@H](O[C@H]2[C@H](O)[C@@H](O)[C@@H](O)O[C@H]2C(=O)O)[C@H](O)[C@@H](O)[C@@H]1O
REMARK SMILES IDX 7 1 6 2 22 3 24 4 20 5 4 6 5 7 23 8 25 10 21 12 2 14 1 15
REMARK SMILES IDX 3 16 8 18 9 19 16 20 11 21 15 22 13 23 10 24 17 26 18 27
REMARK SMILES IDX 19 28 12 30 14 32
REMARK H PARENT 23 9 25 11 21 13 3 17 10 25 19 29 12 31 14 33
ROOT
ATOM      1  O   UNL     1     -17.771   2.363  -1.094  1.00  0.00    -0.340 OA
ENDROOT
BRANCH   1   2
ATOM      2  C   UNL     1     -18.370   2.016   0.153  1.00  0.00    +0.283 C 
ATOM      3  C   UNL     1     -17.890   0.269   1.911  1.00  0.00    +0.180 C 
ATOM      4  C   UNL     1     -16.733   1.117   2.467  1.00  0.00    +0.186 C 
ATOM      5  C   UNL     1     -18.104   0.508   0.418  1.00  0.00    +0.202 C 
ATOM      6  C   UNL     1     -16.578   2.413   1.657  1.00  0.00    +0.262 C 
ATOM      7  O   UNL     1     -17.871   2.842   1.205  1.00  0.00    -0.332 OA
BRANCH   3   8
ATOM      8  O   UNL     1     -17.626  -1.117   2.172  1.00  0.00    -0.387 OA
ATOM      9  H   UNL     1     -16.779  -1.323   1.728  1.00  0.00    +0.211 HD
ENDBRANCH   3   8
BRANCH   4  10
ATOM     10  O   UNL     1     -17.043   1.375   3.845  1.00  0.00    -0.387 OA
ATOM     11  H   UNL     1     -18.016   1.312   3.919  1.00  0.00    +0.211 HD
ENDBRANCH   4  10
BRANCH   5  12
ATOM     12  O   UNL     1     -19.185  -0.327  -0.039  1.00  0.00    -0.385 OA
ATOM     13  H   UNL     1     -19.865  -0.359   0.659  1.00  0.00    +0.211 HD
ENDBRANCH   5  12
BRANCH   6  14
ATOM     14  C   UNL     1     -15.831   3.482   2.445  1.00  0.00    +0.335 C 
ATOM     15  O   UNL     1     -16.190   4.638   2.613  1.00  0.00    -0.249 OA
BRANCH  14  16
ATOM     16  O   UNL     1     -14.701   3.030   3.034  1.00  0.00    -0.479 OA
ATOM     17  H   UNL     1     -14.384   3.799   3.552  1.00  0.00    +0.296 HD
ENDBRANCH  14  16
ENDBRANCH   6  14
ENDBRANCH   1   2
BRANCH   1  18
ATOM     18  C   UNL     1     -18.222   3.593  -1.680  1.00  0.00    +0.193 C 
ATOM     19  C   UNL     1     -17.451   4.851  -1.222  1.00  0.00    +0.180 C 
ATOM     20  C   UNL     1     -18.166   3.480  -3.211  1.00  0.00    +0.262 C 
ATOM     21  C   UNL     1     -17.571   5.998  -2.237  1.00  0.00    +0.201 C 
ATOM     22  O   UNL     1     -18.847   4.571  -3.841  1.00  0.00    -0.332 OA
ATOM     23  C   UNL     1     -18.799   5.811  -3.148  1.00  0.00    +0.279 C 
BRANCH  19  24
ATOM     24  O   UNL     1     -18.008   5.300   0.024  1.00  0.00    -0.387 OA
ATOM     25  H   UNL     1     -17.563   6.156   0.219  1.00  0.00    +0.211 HD
ENDBRANCH  19  24
BRANCH  20  26
ATOM     26  C   UNL     1     -16.734   3.267  -3.734  1.00  0.00    +0.335 C 
ATOM     27  O   UNL     1     -16.178   3.870  -4.640  1.00  0.00    -0.249 OA
BRANCH  26  28
ATOM     28  O   UNL     1     -16.055   2.326  -3.040  1.00  0.00    -0.479 OA
ATOM     29  H   UNL     1     -16.742   1.667  -2.808  1.00  0.00    +0.296 HD
ENDBRANCH  26  28
ENDBRANCH  20  26
BRANCH  21  30
ATOM     30  O   UNL     1     -16.386   6.046  -3.056  1.00  0.00    -0.385 OA
ATOM     31  H   UNL     1     -15.839   6.756  -2.657  1.00  0.00    +0.211 HD
ENDBRANCH  21  30
BRANCH  23  32
ATOM     32  O   UNL     1     -18.758   6.829  -4.141  1.00  0.00    -0.366 OA
ATOM     33  H   UNL     1     -18.645   6.346  -4.978  1.00  0.00    +0.213 HD
ENDBRANCH  23  32
ENDBRANCH   1  18
TORSDOF 12
ENDMDL
MODEL 4
REMARK VINA RESULT:    -6.379     20.033     22.921
REMARK INTER + INTRA:         -10.488
REMARK INTER:                  -8.760
REMARK INTRA:                  -1.729
REMARK UNBOUND:                -1.126
REMARK SMILES O=C(O)[C@@H]1O[C@@H](O[C@H]2[C@H](O)[C@@H](O)[C@@H](O)O[C@H]2C(=O)O)[C@H](O)[C@@H](O)[C@@H]1O
REMARK SMILES IDX 7 1 6 2 22 3 24 4 20 5 4 6 5 7 23 8 25 10 21 12 2 14 1 15
REMARK SMILES IDX 3 16 8 18 9 19 16 20 11 21 15 22 13 23 10 24 17 26 18 27
REMARK SMILES IDX 19 28 12 30 14 32
REMARK H PARENT 23 9 25 11 21 13 3 17 10 25 19 29 12 31 14 33
ROOT
ATOM      1  O   UNL     1     -17.688  -0.076   0.484  1.00  0.00    -0.340 OA
ENDROOT
BRANCH   1   2
ATOM      2  C   UNL     1     -18.199   0.242   1.776  1.00  0.00    +0.283 C 
ATOM      3  C   UNL     1     -17.927  -0.767   4.075  1.00  0.00    +0.180 C 
ATOM      4  C   UNL     1     -16.550  -0.097   4.228  1.00  0.00    +0.186 C 
ATOM      5  C   UNL     1     -18.254  -1.067   2.614  1.00  0.00    +0.202 C 
ATOM      6  C   UNL     1     -16.200   0.707   2.967  1.00  0.00    +0.262 C 
ATOM      7  O   UNL     1     -17.405   1.248   2.406  1.00  0.00    -0.332 OA
BRANCH   3   8
ATOM      8  O   UNL     1     -17.957  -1.968   4.860  1.00  0.00    -0.387 OA
ATOM      9  H   UNL     1     -17.488  -1.762   5.694  1.00  0.00    +0.211 HD
ENDBRANCH   3   8
BRANCH   4  10
ATOM     10  O   UNL     1     -16.629   0.734   5.396  1.00  0.00    -0.387 OA
ATOM     11  H   UNL     1     -17.245   0.282   6.006  1.00  0.00    +0.211 HD
ENDBRANCH   4  10
BRANCH   5  12
ATOM     12  O   UNL     1     -19.542  -1.707   2.545  1.00  0.00    -0.385 OA
ATOM     13  H   UNL     1     -19.405  -2.666   2.439  1.00  0.00    +0.211 HD
ENDBRANCH   5  12
BRANCH   6  14
ATOM     14  C   UNL     1     -15.141   1.766   3.253  1.00  0.00    +0.335 C 
ATOM     15  O   UNL     1     -15.250   2.967   3.055  1.00  0.00    -0.249 OA
BRANCH  14  16
ATOM     16  O   UNL     1     -14.024   1.272   3.831  1.00  0.00    -0.479 OA
ATOM     17  H   UNL     1     -13.577   2.066   4.192  1.00  0.00    +0.296 HD
ENDBRANCH  14  16
ENDBRANCH   6  14
ENDBRANCH   1   2
BRANCH   1  18
ATOM     18  C   UNL     1     -17.794   0.963  -0.500  1.00  0.00    +0.193 C 
ATOM     19  C   UNL     1     -16.474   1.707  -0.804  1.00  0.00    +0.180 C 
ATOM     20  C   UNL     1     -18.370   0.379  -1.800  1.00  0.00    +0.262 C 
ATOM     21  C   UNL     1     -16.500   2.378  -2.185  1.00  0.00    +0.201 C 
ATOM     22  O   UNL     1     -18.741   1.413  -2.718  1.00  0.00    -0.332 OA
ATOM     23  C   UNL     1     -17.944   2.589  -2.677  1.00  0.00    +0.279 C 
BRANCH  19  24
ATOM     24  O   UNL     1     -16.290   2.733   0.185  1.00  0.00    -0.387 OA
ATOM     25  H   UNL     1     -16.501   3.579  -0.270  1.00  0.00    +0.211 HD
ENDBRANCH  19  24
BRANCH  20  26
ATOM     26  C   UNL     1     -17.455  -0.693  -2.419  1.00  0.00    +0.335 C 
ATOM     27  O   UNL     1     -17.093  -0.776  -3.583  1.00  0.00    -0.249 OA
BRANCH  26  28
ATOM     28  O   UNL     1     -17.001  -1.586  -1.511  1.00  0.00    -0.479 OA
ATOM     29  H   UNL     1     -17.815  -1.900  -1.065  1.00  0.00    +0.296 HD
ENDBRANCH  26  28
ENDBRANCH  20  26
BRANCH  21  30
ATOM     30  O   UNL     1     -15.799   1.554  -3.137  1.00  0.00    -0.385 OA
ATOM     31  H   UNL     1     -16.297   0.709  -3.146  1.00  0.00    +0.211 HD
ENDBRANCH  21  30
BRANCH  23  32
ATOM     32  O   UNL     1     -17.878   3.081  -4.011  1.00  0.00    -0.366 OA
ATOM     33  H   UNL     1     -18.233   3.985  -3.952  1.00  0.00    +0.213 HD
ENDBRANCH  23  32
ENDBRANCH   1  18
TORSDOF 12
ENDMDL
MODEL 5
REMARK VINA RESULT:    -6.164     19.679     22.278
REMARK INTER + INTRA:         -10.173
REMARK INTER:                  -8.581
REMARK INTRA:                  -1.592
REMARK UNBOUND:                -1.126
REMARK SMILES O=C(O)[C@@H]1O[C@@H](O[C@H]2[C@H](O)[C@@H](O)[C@@H](O)O[C@H]2C(=O)O)[C@H](O)[C@@H](O)[C@@H]1O
REMARK SMILES IDX 7 1 6 2 22 3 24 4 20 5 4 6 5 7 23 8 25 10 21 12 2 14 1 15
REMARK SMILES IDX 3 16 8 18 9 19 16 20 11 21 15 22 13 23 10 24 17 26 18 27
REMARK SMILES IDX 19 28 12 30 14 32
REMARK H PARENT 23 9 25 11 21 13 3 17 10 25 19 29 12 31 14 33
ROOT
ATOM      1  O   UNL     1     -16.393   1.220  -0.999  1.00  0.00    -0.340 OA
ENDROOT
BRANCH   1   2
ATOM      2  C   UNL     1     -17.255   1.397  -2.120  1.00  0.00    +0.283 C 
ATOM      3  C   UNL     1     -17.101   0.808  -4.571  1.00  0.00    +0.180 C 
ATOM      4  C   UNL     1     -17.461  -0.656  -4.262  1.00  0.00    +0.186 C 
ATOM      5  C   UNL     1     -16.378   1.474  -3.402  1.00  0.00    +0.202 C 
ATOM      6  C   UNL     1     -17.665  -0.853  -2.752  1.00  0.00    +0.262 C 
ATOM      7  O   UNL     1     -18.219   0.346  -2.193  1.00  0.00    -0.332 OA
BRANCH   3   8
ATOM      8  O   UNL     1     -16.298   0.855  -5.759  1.00  0.00    -0.387 OA
ATOM      9  H   UNL     1     -16.327  -0.043  -6.146  1.00  0.00    +0.211 HD
ENDBRANCH   3   8
BRANCH   4  10
ATOM     10  O   UNL     1     -18.651  -0.949  -5.011  1.00  0.00    -0.387 OA
ATOM     11  H   UNL     1     -18.360  -1.472  -5.784  1.00  0.00    +0.211 HD
ENDBRANCH   4  10
BRANCH   5  12
ATOM     12  O   UNL     1     -16.056   2.830  -3.764  1.00  0.00    -0.385 OA
ATOM     13  H   UNL     1     -15.258   2.818  -4.324  1.00  0.00    +0.211 HD
ENDBRANCH   5  12
BRANCH   6  14
ATOM     14  C   UNL     1     -18.496  -2.096  -2.455  1.00  0.00    +0.335 C 
ATOM     15  O   UNL     1     -18.769  -2.987  -3.246  1.00  0.00    -0.249 OA
BRANCH  14  16
ATOM     16  O   UNL     1     -18.888  -2.189  -1.165  1.00  0.00    -0.479 OA
ATOM     17  H   UNL     1     -18.393  -2.964  -0.826  1.00  0.00    +0.296 HD
ENDBRANCH  14  16
ENDBRANCH   6  14
ENDBRANCH   1   2
BRANCH   1  18
ATOM     18  C   UNL     1     -16.408   2.278  -0.030  1.00  0.00    +0.193 C 
ATOM     19  C   UNL     1     -17.603   3.251  -0.148  1.00  0.00    +0.180 C 
ATOM     20  C   UNL     1     -16.369   1.677   1.384  1.00  0.00    +0.262 C 
ATOM     21  C   UNL     1     -17.881   3.982   1.174  1.00  0.00    +0.201 C 
ATOM     22  O   UNL     1     -16.117   2.682   2.373  1.00  0.00    -0.332 OA
ATOM     23  C   UNL     1     -16.641   3.972   2.088  1.00  0.00    +0.279 C 
BRANCH  19  24
ATOM     24  O   UNL     1     -17.292   4.238  -1.145  1.00  0.00    -0.387 OA
ATOM     25  H   UNL     1     -17.348   5.105  -0.684  1.00  0.00    +0.211 HD
ENDBRANCH  19  24
BRANCH  20  26
ATOM     26  C   UNL     1     -17.604   0.811   1.689  1.00  0.00    +0.335 C 
ATOM     27  O   UNL     1     -18.352   0.900   2.651  1.00  0.00    -0.249 OA
BRANCH  26  28
ATOM     28  O   UNL     1     -17.860  -0.100   0.724  1.00  0.00    -0.479 OA
ATOM     29  H   UNL     1     -18.460  -0.739   1.160  1.00  0.00    +0.296 HD
ENDBRANCH  26  28
ENDBRANCH  20  26
BRANCH  21  30
ATOM     30  O   UNL     1     -18.973   3.341   1.862  1.00  0.00    -0.385 OA
ATOM     31  H   UNL     1     -18.564   2.948   2.661  1.00  0.00    +0.211 HD
ENDBRANCH  21  30
BRANCH  23  32
ATOM     32  O   UNL     1     -17.021   4.540   3.337  1.00  0.00    -0.366 OA
ATOM     33  H   UNL     1     -17.895   4.154   3.520  1.00  0.00    +0.213 HD
ENDBRANCH  23  32
ENDBRANCH   1  18
TORSDOF 12
ENDMDL
MODEL 6
REMARK VINA RESULT:    -6.124     19.193     22.354
REMARK INTER + INTRA:         -10.114
REMARK INTER:                  -8.496
REMARK INTRA:                  -1.618
REMARK UNBOUND:                -1.126
REMARK SMILES O=C(O)[C@@H]1O[C@@H](O[C@H]2[C@H](O)[C@@H](O)[C@@H](O)O[C@H]2C(=O)O)[C@H](O)[C@@H](O)[C@@H]1O
REMARK SMILES IDX 7 1 6 2 22 3 24 4 20 5 4 6 5 7 23 8 25 10 21 12 2 14 1 15
REMARK SMILES IDX 3 16 8 18 9 19 16 20 11 21 15 22 13 23 10 24 17 26 18 27
REMARK SMILES IDX 19 28 12 30 14 32
REMARK H PARENT 23 9 25 11 21 13 3 17 10 25 19 29 12 31 14 33
ROOT
ATOM      1  O   UNL     1     -17.039   2.143  -0.384  1.00  0.00    -0.340 OA
ENDROOT
BRANCH   1   2
ATOM      2  C   UNL     1     -17.629   2.426  -1.651  1.00  0.00    +0.283 C 
ATOM      3  C   UNL     1     -16.711   2.888  -3.957  1.00  0.00    +0.180 C 
ATOM      4  C   UNL     1     -16.458   1.387  -4.179  1.00  0.00    +0.186 C 
ATOM      5  C   UNL     1     -16.619   3.268  -2.481  1.00  0.00    +0.202 C 
ATOM      6  C   UNL     1     -16.875   0.582  -2.939  1.00  0.00    +0.262 C 
ATOM      7  O   UNL     1     -18.000   1.221  -2.321  1.00  0.00    -0.332 OA
BRANCH   3   8
ATOM      8  O   UNL     1     -15.773   3.645  -4.736  1.00  0.00    -0.387 OA
ATOM      9  H   UNL     1     -15.553   3.092  -5.513  1.00  0.00    +0.211 HD
ENDBRANCH   3   8
BRANCH   4  10
ATOM     10  O   UNL     1     -17.210   1.016  -5.344  1.00  0.00    -0.387 OA
ATOM     11  H   UNL     1     -17.770   1.787  -5.561  1.00  0.00    +0.211 HD
ENDBRANCH   4  10
BRANCH   5  12
ATOM     12  O   UNL     1     -16.848   4.684  -2.347  1.00  0.00    -0.385 OA
ATOM     13  H   UNL     1     -17.182   5.023  -3.198  1.00  0.00    +0.211 HD
ENDBRANCH   5  12
BRANCH   6  14
ATOM     14  C   UNL     1     -17.126  -0.882  -3.279  1.00  0.00    +0.335 C 
ATOM     15  O   UNL     1     -17.765  -1.302  -4.233  1.00  0.00    -0.249 OA
BRANCH  14  16
ATOM     16  O   UNL     1     -16.511  -1.746  -2.441  1.00  0.00    -0.479 OA
ATOM     17  H   UNL     1     -17.252  -2.187  -1.975  1.00  0.00    +0.296 HD
ENDBRANCH  14  16
ENDBRANCH   6  14
ENDBRANCH   1   2
BRANCH   1  18
ATOM     18  C   UNL     1     -17.908   1.543   0.587  1.00  0.00    +0.193 C 
ATOM     19  C   UNL     1     -17.574   0.076   0.940  1.00  0.00    +0.180 C 
ATOM     20  C   UNL     1     -17.910   2.395   1.866  1.00  0.00    +0.262 C 
ATOM     21  C   UNL     1     -18.131  -0.324   2.314  1.00  0.00    +0.201 C 
ATOM     22  O   UNL     1     -18.953   1.992   2.761  1.00  0.00    -0.332 OA
ATOM     23  C   UNL     1     -19.279   0.608   2.745  1.00  0.00    +0.279 C 
BRANCH  19  24
ATOM     24  O   UNL     1     -18.172  -0.779  -0.048  1.00  0.00    -0.387 OA
ATOM     25  H   UNL     1     -17.649  -0.639  -0.870  1.00  0.00    +0.211 HD
ENDBRANCH  19  24
BRANCH  20  26
ATOM     26  C   UNL     1     -16.524   2.463   2.531  1.00  0.00    +0.335 C 
ATOM     27  O   UNL     1     -16.261   2.318   3.715  1.00  0.00    -0.249 OA
BRANCH  26  28
ATOM     28  O   UNL     1     -15.524   2.663   1.642  1.00  0.00    -0.479 OA
ATOM     29  H   UNL     1     -14.794   3.021   2.189  1.00  0.00    +0.296 HD
ENDBRANCH  26  28
ENDBRANCH  20  26
BRANCH  21  30
ATOM     30  O   UNL     1     -17.082  -0.258   3.300  1.00  0.00    -0.385 OA
ATOM     31  H   UNL     1     -17.062  -1.153   3.699  1.00  0.00    +0.211 HD
ENDBRANCH  21  30
BRANCH  23  32
ATOM     32  O   UNL     1     -19.641   0.261   4.077  1.00  0.00    -0.366 OA
ATOM     33  H   UNL     1     -20.554   0.583   4.170  1.00  0.00    +0.213 HD
ENDBRANCH  23  32
ENDBRANCH   1  18
TORSDOF 12
ENDMDL
MODEL 7
REMARK VINA RESULT:    -5.997      5.935      8.680
REMARK INTER + INTRA:          -9.928
REMARK INTER:                  -8.433
REMARK INTRA:                  -1.495
REMARK UNBOUND:                -1.126
REMARK SMILES O=C(O)[C@@H]1O[C@@H](O[C@H]2[C@H](O)[C@@H](O)[C@@H](O)O[C@H]2C(=O)O)[C@H](O)[C@@H](O)[C@@H]1O
REMARK SMILES IDX 7 1 6 2 22 3 24 4 20 5 4 6 5 7 23 8 25 10 21 12 2 14 1 15
REMARK SMILES IDX 3 16 8 18 9 19 16 20 11 21 15 22 13 23 10 24 17 26 18 27
REMARK SMILES IDX 19 28 12 30 14 32
REMARK H PARENT 23 9 25 11 21 13 3 17 10 25 19 29 12 31 14 33
ROOT
ATOM      1  O   UNL     1      -6.173   4.393 -12.664  1.00  0.00    -0.340 OA
ENDROOT
BRANCH   1   2
ATOM      2  C   UNL     1      -6.785   4.400 -11.376  1.00  0.00    +0.283 C 
ATOM      3  C   UNL     1      -7.491   2.600  -9.752  1.00  0.00    +0.180 C 
ATOM      4  C   UNL     1      -6.035   2.421  -9.287  1.00  0.00    +0.186 C 
ATOM      5  C   UNL     1      -7.570   3.069 -11.204  1.00  0.00    +0.202 C 
ATOM      6  C   UNL     1      -5.105   3.372 -10.055  1.00  0.00    +0.262 C 
ATOM      7  O   UNL     1      -5.811   4.585 -10.349  1.00  0.00    -0.332 OA
BRANCH   3   8
ATOM      8  O   UNL     1      -8.197   1.362  -9.579  1.00  0.00    -0.387 OA
ATOM      9  H   UNL     1      -8.410   1.299  -8.626  1.00  0.00    +0.211 HD
ENDBRANCH   3   8
BRANCH   4  10
ATOM     10  O   UNL     1      -6.025   2.677  -7.874  1.00  0.00    -0.387 OA
ATOM     11  H   UNL     1      -6.008   3.650  -7.777  1.00  0.00    +0.211 HD
ENDBRANCH   4  10
BRANCH   5  12
ATOM     12  O   UNL     1      -8.955   3.197 -11.578  1.00  0.00    -0.385 OA
ATOM     13  H   UNL     1      -9.228   4.122 -11.435  1.00  0.00    +0.211 HD
ENDBRANCH   5  12
BRANCH   6  14
ATOM     14  C   UNL     1      -3.797   3.603  -9.306  1.00  0.00    +0.335 C 
ATOM     15  O   UNL     1      -2.698   3.174  -9.624  1.00  0.00    -0.249 OA
BRANCH  14  16
ATOM     16  O   UNL     1      -3.925   4.413  -8.231  1.00  0.00    -0.479 OA
ATOM     17  H   UNL     1      -3.059   4.871  -8.180  1.00  0.00    +0.296 HD
ENDBRANCH  14  16
ENDBRANCH   6  14
ENDBRANCH   1   2
BRANCH   1  18
ATOM     18  C   UNL     1      -5.368   5.539 -12.976  1.00  0.00    +0.193 C 
ATOM     19  C   UNL     1      -3.925   5.216 -13.426  1.00  0.00    +0.180 C 
ATOM     20  C   UNL     1      -6.070   6.380 -14.053  1.00  0.00    +0.262 C 
ATOM     21  C   UNL     1      -3.313   6.359 -14.251  1.00  0.00    +0.201 C 
ATOM     22  O   UNL     1      -5.445   7.659 -14.208  1.00  0.00    -0.332 OA
ATOM     23  C   UNL     1      -4.041   7.690 -13.987  1.00  0.00    +0.279 C 
BRANCH  19  24
ATOM     24  O   UNL     1      -3.112   5.027 -12.256  1.00  0.00    -0.387 OA
ATOM     25  H   UNL     1      -2.916   4.063 -12.224  1.00  0.00    +0.211 HD
ENDBRANCH  19  24
BRANCH  20  26
ATOM     26  C   UNL     1      -6.241   5.616 -15.377  1.00  0.00    +0.335 C 
ATOM     27  O   UNL     1      -5.972   6.011 -16.502  1.00  0.00    -0.249 OA
BRANCH  26  28
ATOM     28  O   UNL     1      -6.702   4.356 -15.203  1.00  0.00    -0.479 OA
ATOM     29  H   UNL     1      -7.550   4.348 -15.695  1.00  0.00    +0.296 HD
ENDBRANCH  26  28
ENDBRANCH  20  26
BRANCH  21  30
ATOM     30  O   UNL     1      -3.406   6.047 -15.654  1.00  0.00    -0.385 OA
ATOM     31  H   UNL     1      -2.495   5.787 -15.910  1.00  0.00    +0.211 HD
ENDBRANCH  21  30
BRANCH  23  32
ATOM     32  O   UNL     1      -3.511   8.658 -14.885  1.00  0.00    -0.366 OA
ATOM     33  H   UNL     1      -4.099   8.616 -15.659  1.00  0.00    +0.213 HD
ENDBRANCH  23  32
ENDBRANCH   1  18
TORSDOF 12
ENDMDL
MODEL 8
REMARK VINA RESULT:    -5.934      5.033      7.562
REMARK INTER + INTRA:          -9.836
REMARK INTER:                  -8.625
REMARK INTRA:                  -1.211
REMARK UNBOUND:                -1.126
REMARK SMILES O=C(O)[C@@H]1O[C@@H](O[C@H]2[C@H](O)[C@@H](O)[C@@H](O)O[C@H]2C(=O)O)[C@H](O)[C@@H](O)[C@@H]1O
REMARK SMILES IDX 7 1 6 2 22 3 24 4 20 5 4 6 5 7 23 8 25 10 21 12 2 14 1 15
REMARK SMILES IDX 3 16 8 18 9 19 16 20 11 21 15 22 13 23 10 24 17 26 18 27
REMARK SMILES IDX 19 28 12 30 14 32
REMARK H PARENT 23 9 25 11 21 13 3 17 10 25 19 29 12 31 14 33
ROOT
ATOM      1  O   UNL     1       4.864  10.329  -7.804  1.00  0.00    -0.340 OA
ENDROOT
BRANCH   1   2
ATOM      2  C   UNL     1       5.317   9.705  -9.004  1.00  0.00    +0.283 C 
ATOM      3  C   UNL     1       6.954   7.852  -9.517  1.00  0.00    +0.180 C 
ATOM      4  C   UNL     1       5.912   6.794  -9.115  1.00  0.00    +0.186 C 
ATOM      5  C   UNL     1       6.753   9.163  -8.759  1.00  0.00    +0.202 C 
ATOM      6  C   UNL     1       4.607   7.467  -8.664  1.00  0.00    +0.262 C 
ATOM      7  O   UNL     1       4.418   8.675  -9.414  1.00  0.00    -0.332 OA
BRANCH   3   8
ATOM      8  O   UNL     1       8.270   7.329  -9.287  1.00  0.00    -0.387 OA
ATOM      9  H   UNL     1       8.424   7.386  -8.323  1.00  0.00    +0.211 HD
ENDBRANCH   3   8
BRANCH   4  10
ATOM     10  O   UNL     1       5.719   5.957 -10.266  1.00  0.00    -0.387 OA
ATOM     11  H   UNL     1       4.800   5.629 -10.209  1.00  0.00    +0.211 HD
ENDBRANCH   4  10
BRANCH   5  12
ATOM     12  O   UNL     1       7.769  10.099  -9.167  1.00  0.00    -0.385 OA
ATOM     13  H   UNL     1       7.453  10.570  -9.960  1.00  0.00    +0.211 HD
ENDBRANCH   5  12
BRANCH   6  14
ATOM     14  C   UNL     1       3.423   6.512  -8.752  1.00  0.00    +0.335 C 
ATOM     15  O   UNL     1       2.997   5.805  -7.850  1.00  0.00    -0.249 OA
BRANCH  14  16
ATOM     16  O   UNL     1       2.793   6.539  -9.948  1.00  0.00    -0.479 OA
ATOM     17  H   UNL     1       2.487   5.616 -10.071  1.00  0.00    +0.296 HD
ENDBRANCH  14  16
ENDBRANCH   6  14
ENDBRANCH   1   2
BRANCH   1  18
ATOM     18  C   UNL     1       4.419  11.686  -7.938  1.00  0.00    +0.193 C 
ATOM     19  C   UNL     1       3.464  12.170  -6.824  1.00  0.00    +0.180 C 
ATOM     20  C   UNL     1       5.638  12.619  -8.015  1.00  0.00    +0.262 C 
ATOM     21  C   UNL     1       3.466  13.700  -6.692  1.00  0.00    +0.201 C 
ATOM     22  O   UNL     1       5.260  13.942  -8.412  1.00  0.00    -0.332 OA
ATOM     23  C   UNL     1       3.976  14.372  -7.981  1.00  0.00    +0.279 C 
BRANCH  19  24
ATOM     24  O   UNL     1       2.128  11.754  -7.154  1.00  0.00    -0.387 OA
ATOM     25  H   UNL     1       1.568  12.042  -6.398  1.00  0.00    +0.211 HD
ENDBRANCH  19  24
BRANCH  20  26
ATOM     26  C   UNL     1       6.489  12.581  -6.734  1.00  0.00    +0.335 C 
ATOM     27  O   UNL     1       7.251  13.444  -6.324  1.00  0.00    -0.249 OA
BRANCH  26  28
ATOM     28  O   UNL     1       6.291  11.462  -6.002  1.00  0.00    -0.479 OA
ATOM     29  H   UNL     1       5.326  11.464  -5.829  1.00  0.00    +0.296 HD
ENDBRANCH  26  28
ENDBRANCH  20  26
BRANCH  21  30
ATOM     30  O   UNL     1       4.315  14.091  -5.595  1.00  0.00    -0.385 OA
ATOM     31  H   UNL     1       3.874  14.877  -5.209  1.00  0.00    +0.211 HD
ENDBRANCH  21  30
BRANCH  23  32
ATOM     32  O   UNL     1       4.079  15.768  -7.728  1.00  0.00    -0.366 OA
ATOM     33  H   UNL     1       4.101  15.837  -6.758  1.00  0.00    +0.213 HD
ENDBRANCH  23  32
ENDBRANCH   1  18
TORSDOF 12
ENDMDL
MODEL 9
REMARK VINA RESULT:    -5.858     19.087     22.506
REMARK INTER + INTRA:          -9.724
REMARK INTER:                  -8.253
REMARK INTRA:                  -1.471
REMARK UNBOUND:                -1.126
REMARK SMILES O=C(O)[C@@H]1O[C@@H](O[C@H]2[C@H](O)[C@@H](O)[C@@H](O)O[C@H]2C(=O)O)[C@H](O)[C@@H](O)[C@@H]1O
REMARK SMILES IDX 7 1 6 2 22 3 24 4 20 5 4 6 5 7 23 8 25 10 21 12 2 14 1 15
REMARK SMILES IDX 3 16 8 18 9 19 16 20 11 21 15 22 13 23 10 24 17 26 18 27
REMARK SMILES IDX 19 28 12 30 14 32
REMARK H PARENT 23 9 25 11 21 13 3 17 10 25 19 29 12 31 14 33
ROOT
ATOM      1  O   UNL     1     -17.759   3.644   0.395  1.00  0.00    -0.340 OA
ENDROOT
BRANCH   1   2
ATOM      2  C   UNL     1     -16.934   3.650   1.558  1.00  0.00    +0.283 C 
ATOM      3  C   UNL     1     -17.389   3.715   4.041  1.00  0.00    +0.180 C 
ATOM      4  C   UNL     1     -17.731   2.215   4.038  1.00  0.00    +0.186 C 
ATOM      5  C   UNL     1     -17.704   4.373   2.699  1.00  0.00    +0.202 C 
ATOM      6  C   UNL     1     -17.610   1.638   2.619  1.00  0.00    +0.262 C 
ATOM      7  O   UNL     1     -16.558   2.322   1.923  1.00  0.00    -0.332 OA
BRANCH   3   8
ATOM      8  O   UNL     1     -18.106   4.360   5.104  1.00  0.00    -0.387 OA
ATOM      9  H   UNL     1     -17.680   4.072   5.936  1.00  0.00    +0.211 HD
ENDBRANCH   3   8
BRANCH   4  10
ATOM     10  O   UNL     1     -16.822   1.589   4.957  1.00  0.00    -0.387 OA
ATOM     11  H   UNL     1     -16.350   0.904   4.443  1.00  0.00    +0.211 HD
ENDBRANCH   4  10
BRANCH   5  12
ATOM     12  O   UNL     1     -17.379   5.773   2.777  1.00  0.00    -0.385 OA
ATOM     13  H   UNL     1     -17.802   6.230   2.027  1.00  0.00    +0.211 HD
ENDBRANCH   5  12
BRANCH   6  14
ATOM     14  C   UNL     1     -17.432   0.125   2.642  1.00  0.00    +0.335 C 
ATOM     15  O   UNL     1     -18.244  -0.703   2.254  1.00  0.00    -0.249 OA
BRANCH  14  16
ATOM     16  O   UNL     1     -16.221  -0.272   3.092  1.00  0.00    -0.479 OA
ATOM     17  H   UNL     1     -16.255  -0.080   4.053  1.00  0.00    +0.296 HD
ENDBRANCH  14  16
ENDBRANCH   6  14
ENDBRANCH   1   2
BRANCH   1  18
ATOM     18  C   UNL     1     -17.068   3.531  -0.857  1.00  0.00    +0.193 C 
ATOM     19  C   UNL     1     -17.248   2.175  -1.577  1.00  0.00    +0.180 C 
ATOM     20  C   UNL     1     -17.506   4.673  -1.787  1.00  0.00    +0.262 C 
ATOM     21  C   UNL     1     -16.984   2.289  -3.086  1.00  0.00    +0.201 C 
ATOM     22  O   UNL     1     -16.661   4.761  -2.940  1.00  0.00    -0.332 OA
ATOM     23  C   UNL     1     -16.132   3.529  -3.413  1.00  0.00    +0.279 C 
BRANCH  19  24
ATOM     24  O   UNL     1     -16.304   1.239  -1.031  1.00  0.00    -0.387 OA
ATOM     25  H   UNL     1     -15.443   1.714  -1.011  1.00  0.00    +0.211 HD
ENDBRANCH  19  24
BRANCH  20  26
ATOM     26  C   UNL     1     -19.005   4.612  -2.129  1.00  0.00    +0.335 C 
ATOM     27  O   UNL     1     -19.517   4.676  -3.237  1.00  0.00    -0.249 OA
BRANCH  26  28
ATOM     28  O   UNL     1     -19.785   4.420  -1.041  1.00  0.00    -0.479 OA
ATOM     29  H   UNL     1     -20.349   3.659  -1.290  1.00  0.00    +0.296 HD
ENDBRANCH  26  28
ENDBRANCH  20  26
BRANCH  21  30
ATOM     30  O   UNL     1     -18.237   2.386  -3.791  1.00  0.00    -0.385 OA
ATOM     31  H   UNL     1     -17.993   2.702  -4.686  1.00  0.00    +0.211 HD
ENDBRANCH  21  30
BRANCH  23  32
ATOM     32  O   UNL     1     -16.053   3.639  -4.830  1.00  0.00    -0.366 OA
ATOM     33  H   UNL     1     -15.694   4.530  -4.983  1.00  0.00    +0.213 HD
ENDBRANCH  23  32
ENDBRANCH   1  18
TORSDOF 12
ENDMDL
