MODEL 1
REMARK VINA RESULT:    -6.736      0.000      0.000
REMARK INTER + INTRA:         -11.206
REMARK INTER:                  -9.886
REMARK INTRA:                  -1.320
REMARK UNBOUND:                -1.320
REMARK SMILES O=S(=O)(O)OC[C@@H]1O[C@H](O[C@H]2[C@@H]3OC[C@H]2O[C@@H](O)[C@H]3O)[C@@H](O)[C@H](O)[C@@H]1O
REMARK SMILES IDX 9 1 21 2 23 3 25 4 7 5 8 6 10 7 11 8 14 9 15 10 13 11 16 12
REMARK SMILES IDX 12 13 17 14 19 15 18 16 20 18 22 20 24 22 6 24 5 25 2 26
REMARK SMILES IDX 1 27 3 28 4 29 26 31
REMARK H PARENT 18 17 20 19 22 21 24 23 4 30 26 32
ROOT
ATOM      1  C   UNL     1      -2.804   7.537 -12.438  1.00  0.00    +0.282 C 
ATOM      2  C   UNL     1      -3.976   8.492 -12.139  1.00  0.00    +0.202 C 
ATOM      3  C   UNL     1      -5.030   8.300 -13.215  1.00  0.00    +0.179 C 
ATOM      4  C   UNL     1      -5.595   6.879 -13.122  1.00  0.00    +0.177 C 
ATOM      5  C   UNL     1      -4.523   5.828 -12.745  1.00  0.00    +0.180 C 
ATOM      6  O   UNL     1      -3.185   6.289 -13.013  1.00  0.00    -0.341 OA
ENDROOT
BRANCH   1   7
ATOM      7  O   UNL     1      -2.040   7.392 -11.237  1.00  0.00    -0.341 OA
BRANCH   7   8
ATOM      8  C   UNL     1      -0.664   7.712 -11.412  1.00  0.00    +0.184 C 
ATOM      9  C   UNL     1       1.624   7.288 -11.126  1.00  0.00    +0.195 C 
ATOM     10  C   UNL     1       0.291   6.544 -11.222  1.00  0.00    +0.179 C 
ATOM     11  O   UNL     1       1.324   8.556 -10.489  1.00  0.00    -0.370 OA
ATOM     12  O   UNL     1      -0.042   5.814 -10.027  1.00  0.00    -0.342 OA
ATOM     13  C   UNL     1      -0.114   8.594 -10.297  1.00  0.00    +0.184 C 
ATOM     14  C   UNL     1       0.007   6.545  -8.807  1.00  0.00    +0.279 C 
ATOM     15  C   UNL     1      -0.481   8.006  -8.928  1.00  0.00    +0.202 C 
BRANCH  14  16
ATOM     16  O   UNL     1       1.340   6.507  -8.304  1.00  0.00    -0.366 OA
ATOM     17  H   UNL     1       1.898   6.720  -9.073  1.00  0.00    +0.213 HD
ENDBRANCH  14  16
BRANCH  15  18
ATOM     18  O   UNL     1       0.064   8.814  -7.877  1.00  0.00    -0.385 OA
ATOM     19  H   UNL     1      -0.255   8.382  -7.056  1.00  0.00    +0.211 HD
ENDBRANCH  15  18
ENDBRANCH   7   8
ENDBRANCH   1   7
BRANCH   2  20
ATOM     20  O   UNL     1      -3.547   9.864 -12.137  1.00  0.00    -0.385 OA
ATOM     21  H   UNL     1      -3.694  10.195 -13.045  1.00  0.00    +0.211 HD
ENDBRANCH   2  20
BRANCH   3  22
ATOM     22  O   UNL     1      -6.099   9.246 -13.045  1.00  0.00    -0.387 OA
ATOM     23  H   UNL     1      -5.725  10.102 -13.341  1.00  0.00    +0.211 HD
ENDBRANCH   3  22
BRANCH   5  24
ATOM     24  C   UNL     1      -4.655   5.243 -11.326  1.00  0.00    +0.220 C 
BRANCH  24  25
ATOM     25  O   UNL     1      -3.673   4.222 -11.166  1.00  0.00    -0.245 OA
BRANCH  25  26
ATOM     26  S   UNL     1      -3.211   3.847  -9.655  1.00  0.00    +0.397 S 
ATOM     27  O   UNL     1      -3.803   2.590  -9.256  1.00  0.00    -0.169 OA
ATOM     28  O   UNL     1      -3.310   5.038  -8.842  1.00  0.00    -0.169 OA
BRANCH  26  29
ATOM     29  O   UNL     1      -1.630   3.606  -9.840  1.00  0.00    -0.264 OA
ATOM     30  H   UNL     1      -1.212   4.489  -9.894  1.00  0.00    +0.236 HD
ENDBRANCH  26  29
ENDBRANCH  25  26
ENDBRANCH  24  25
ENDBRANCH   5  24
BRANCH   4  31
ATOM     31  O   UNL     1      -6.688   6.868 -12.197  1.00  0.00    -0.387 OA
ATOM     32  H   UNL     1      -6.278   7.048 -11.322  1.00  0.00    +0.211 HD
ENDBRANCH   4  31
TORSDOF 11
ENDMDL
MODEL 2
REMARK VINA RESULT:    -6.447     12.772     15.263
REMARK INTER + INTRA:         -10.782
REMARK INTER:                  -9.548
REMARK INTRA:                  -1.234
REMARK UNBOUND:                -1.320
REMARK SMILES O=S(=O)(O)OC[C@@H]1O[C@H](O[C@H]2[C@@H]3OC[C@H]2O[C@@H](O)[C@H]3O)[C@@H](O)[C@H](O)[C@@H]1O
REMARK SMILES IDX 9 1 21 2 23 3 25 4 7 5 8 6 10 7 11 8 14 9 15 10 13 11 16 12
REMARK SMILES IDX 12 13 17 14 19 15 18 16 20 18 22 20 24 22 6 24 5 25 2 26
REMARK SMILES IDX 1 27 3 28 4 29 26 31
REMARK H PARENT 18 17 20 19 22 21 24 23 4 30 26 32
ROOT
ATOM      1  C   UNL     1      -8.970  19.253  -8.942  1.00  0.00    +0.282 C 
ATOM      2  C   UNL     1      -8.697  17.737  -8.889  1.00  0.00    +0.202 C 
ATOM      3  C   UNL     1      -8.165  17.304 -10.245  1.00  0.00    +0.179 C 
ATOM      4  C   UNL     1      -6.813  17.978 -10.496  1.00  0.00    +0.177 C 
ATOM      5  C   UNL     1      -6.750  19.425  -9.949  1.00  0.00    +0.180 C 
ATOM      6  O   UNL     1      -8.059  19.994  -9.752  1.00  0.00    -0.341 OA
ENDROOT
BRANCH   1   7
ATOM      7  O   UNL     1      -9.043  19.732  -7.596  1.00  0.00    -0.341 OA
BRANCH   7   8
ATOM      8  C   UNL     1      -9.705  20.988  -7.489  1.00  0.00    +0.184 C 
ATOM      9  C   UNL     1      -9.817  23.229  -6.810  1.00  0.00    +0.195 C 
ATOM     10  C   UNL     1      -8.788  22.168  -7.204  1.00  0.00    +0.179 C 
ATOM     11  O   UNL     1     -10.894  22.511  -6.154  1.00  0.00    -0.370 OA
ATOM     12  O   UNL     1      -7.868  21.845  -6.147  1.00  0.00    -0.342 OA
ATOM     13  C   UNL     1     -10.560  21.101  -6.232  1.00  0.00    +0.184 C 
ATOM     14  C   UNL     1      -8.445  21.503  -4.891  1.00  0.00    +0.279 C 
ATOM     15  C   UNL     1      -9.748  20.680  -5.000  1.00  0.00    +0.202 C 
BRANCH  14  16
ATOM     16  O   UNL     1      -8.674  22.700  -4.152  1.00  0.00    -0.366 OA
ATOM     17  H   UNL     1      -9.592  22.621  -3.838  1.00  0.00    +0.213 HD
ENDBRANCH  14  16
BRANCH  15  18
ATOM     18  O   UNL     1     -10.539  20.819  -3.812  1.00  0.00    -0.385 OA
ATOM     19  H   UNL     1     -10.091  20.237  -3.160  1.00  0.00    +0.211 HD
ENDBRANCH  15  18
ENDBRANCH   7   8
ENDBRANCH   1   7
BRANCH   2  20
ATOM     20  O   UNL     1      -9.895  16.998  -8.594  1.00  0.00    -0.385 OA
ATOM     21  H   UNL     1     -10.629  17.641  -8.646  1.00  0.00    +0.211 HD
ENDBRANCH   2  20
BRANCH   3  22
ATOM     22  O   UNL     1      -7.996  15.877 -10.284  1.00  0.00    -0.387 OA
ATOM     23  H   UNL     1      -8.539  15.582 -11.045  1.00  0.00    +0.211 HD
ENDBRANCH   3  22
BRANCH   5  24
ATOM     24  C   UNL     1      -5.850  19.617  -8.716  1.00  0.00    +0.220 C 
BRANCH  24  25
ATOM     25  O   UNL     1      -4.489  19.585  -9.140  1.00  0.00    -0.245 OA
BRANCH  25  26
ATOM     26  S   UNL     1      -3.405  18.884  -8.155  1.00  0.00    +0.397 S 
ATOM     27  O   UNL     1      -2.145  18.722  -8.844  1.00  0.00    -0.169 OA
ATOM     28  O   UNL     1      -4.055  17.789  -7.471  1.00  0.00    -0.169 OA
BRANCH  26  29
ATOM     29  O   UNL     1      -3.203  20.012  -7.024  1.00  0.00    -0.264 OA
ATOM     30  H   UNL     1      -2.264  20.286  -7.059  1.00  0.00    +0.236 HD
ENDBRANCH  26  29
ENDBRANCH  25  26
ENDBRANCH  24  25
ENDBRANCH   5  24
BRANCH   4  31
ATOM     31  O   UNL     1      -5.773  17.164  -9.944  1.00  0.00    -0.387 OA
ATOM     32  H   UNL     1      -5.390  17.705  -9.217  1.00  0.00    +0.211 HD
ENDBRANCH   4  31
TORSDOF 11
ENDMDL
MODEL 3
REMARK VINA RESULT:    -6.262     16.434     19.100
REMARK INTER + INTRA:         -10.510
REMARK INTER:                  -9.462
REMARK INTRA:                  -1.049
REMARK UNBOUND:                -1.320
REMARK SMILES O=S(=O)(O)OC[C@@H]1O[C@H](O[C@H]2[C@@H]3OC[C@H]2O[C@@H](O)[C@H]3O)[C@@H](O)[C@H](O)[C@@H]1O
REMARK SMILES IDX 9 1 21 2 23 3 25 4 7 5 8 6 10 7 11 8 14 9 15 10 13 11 16 12
REMARK SMILES IDX 12 13 17 14 19 15 18 16 20 18 22 20 24 22 6 24 5 25 2 26
REMARK SMILES IDX 1 27 3 28 4 29 26 31
REMARK H PARENT 18 17 20 19 22 21 24 23 4 30 26 32
ROOT
ATOM      1  C   UNL     1     -17.886   1.700  -1.635  1.00  0.00    +0.282 C 
ATOM      2  C   UNL     1     -16.829   0.762  -2.249  1.00  0.00    +0.202 C 
ATOM      3  C   UNL     1     -17.216   0.492  -3.693  1.00  0.00    +0.179 C 
ATOM      4  C   UNL     1     -17.148   1.800  -4.488  1.00  0.00    +0.177 C 
ATOM      5  C   UNL     1     -17.612   3.028  -3.668  1.00  0.00    +0.180 C 
ATOM      6  O   UNL     1     -18.429   2.658  -2.542  1.00  0.00    -0.341 OA
ENDROOT
BRANCH   1   7
ATOM      7  O   UNL     1     -17.317   2.294  -0.465  1.00  0.00    -0.341 OA
BRANCH   7   8
ATOM      8  C   UNL     1     -17.851   1.763   0.743  1.00  0.00    +0.184 C 
ATOM      9  C   UNL     1     -18.828   1.989   2.862  1.00  0.00    +0.195 C 
ATOM     10  C   UNL     1     -18.738   2.722   1.523  1.00  0.00    +0.179 C 
ATOM     11  O   UNL     1     -17.555   1.312   3.029  1.00  0.00    -0.370 OA
ATOM     12  O   UNL     1     -18.115   4.015   1.621  1.00  0.00    -0.342 OA
ATOM     13  C   UNL     1     -16.792   1.561   1.821  1.00  0.00    +0.184 C 
ATOM     14  C   UNL     1     -16.849   4.057   2.271  1.00  0.00    +0.279 C 
ATOM     15  C   UNL     1     -15.949   2.835   1.980  1.00  0.00    +0.202 C 
BRANCH  14  16
ATOM     16  O   UNL     1     -17.060   4.195   3.674  1.00  0.00    -0.366 OA
ATOM     17  H   UNL     1     -17.938   4.608   3.750  1.00  0.00    +0.213 HD
ENDBRANCH  14  16
BRANCH  15  18
ATOM     18  O   UNL     1     -14.975   2.660   3.017  1.00  0.00    -0.385 OA
ATOM     19  H   UNL     1     -14.159   3.058   2.644  1.00  0.00    +0.211 HD
ENDBRANCH  15  18
ENDBRANCH   7   8
ENDBRANCH   1   7
BRANCH   2  20
ATOM     20  O   UNL     1     -16.758  -0.486  -1.538  1.00  0.00    -0.385 OA
ATOM     21  H   UNL     1     -17.589  -0.554  -1.028  1.00  0.00    +0.211 HD
ENDBRANCH   2  20
BRANCH   3  22
ATOM     22  O   UNL     1     -16.321  -0.466  -4.282  1.00  0.00    -0.387 OA
ATOM     23  H   UNL     1     -16.282  -0.223  -5.231  1.00  0.00    +0.211 HD
ENDBRANCH   3  22
BRANCH   5  24
ATOM     24  C   UNL     1     -16.492   4.006  -3.268  1.00  0.00    +0.220 C 
BRANCH  24  25
ATOM     25  O   UNL     1     -16.867   5.317  -3.681  1.00  0.00    -0.245 OA
BRANCH  25  26
ATOM     26  S   UNL     1     -17.635   6.259  -2.605  1.00  0.00    +0.397 S 
ATOM     27  O   UNL     1     -17.230   7.636  -2.776  1.00  0.00    -0.169 OA
ATOM     28  O   UNL     1     -17.602   5.600  -1.319  1.00  0.00    -0.169 OA
BRANCH  26  29
ATOM     29  O   UNL     1     -19.166   6.138  -3.088  1.00  0.00    -0.264 OA
ATOM     30  H   UNL     1     -19.544   7.040  -3.067  1.00  0.00    +0.236 HD
ENDBRANCH  26  29
ENDBRANCH  25  26
ENDBRANCH  24  25
ENDBRANCH   5  24
BRANCH   4  31
ATOM     31  O   UNL     1     -15.817   1.976  -4.987  1.00  0.00    -0.387 OA
ATOM     32  H   UNL     1     -15.918   2.000  -5.965  1.00  0.00    +0.211 HD
ENDBRANCH   4  31
TORSDOF 11
ENDMDL
MODEL 4
REMARK VINA RESULT:    -6.085     15.806     17.304
REMARK INTER + INTRA:         -10.251
REMARK INTER:                  -9.158
REMARK INTRA:                  -1.093
REMARK UNBOUND:                -1.320
REMARK SMILES O=S(=O)(O)OC[C@@H]1O[C@H](O[C@H]2[C@@H]3OC[C@H]2O[C@@H](O)[C@H]3O)[C@@H](O)[C@H](O)[C@@H]1O
REMARK SMILES IDX 9 1 21 2 23 3 25 4 7 5 8 6 10 7 11 8 14 9 15 10 13 11 16 12
REMARK SMILES IDX 12 13 17 14 19 15 18 16 20 18 22 20 24 22 6 24 5 25 2 26
REMARK SMILES IDX 1 27 3 28 4 29 26 31
REMARK H PARENT 18 17 20 19 22 21 24 23 4 30 26 32
ROOT
ATOM      1  C   UNL     1      14.292   2.177  -9.134  1.00  0.00    +0.282 C 
ATOM      2  C   UNL     1      13.031   2.644  -9.886  1.00  0.00    +0.202 C 
ATOM      3  C   UNL     1      13.082   2.077 -11.295  1.00  0.00    +0.179 C 
ATOM      4  C   UNL     1      13.006   0.549 -11.228  1.00  0.00    +0.177 C 
ATOM      5  C   UNL     1      13.766  -0.040 -10.016  1.00  0.00    +0.180 C 
ATOM      6  O   UNL     1      14.747   0.872  -9.488  1.00  0.00    -0.341 OA
ENDROOT
BRANCH   1   7
ATOM      7  O   UNL     1      14.046   2.325  -7.733  1.00  0.00    -0.341 OA
BRANCH   7   8
ATOM      8  C   UNL     1      15.175   2.820  -7.020  1.00  0.00    +0.184 C 
ATOM      9  C   UNL     1      16.636   2.831  -5.187  1.00  0.00    +0.195 C 
ATOM     10  C   UNL     1      15.716   1.880  -5.954  1.00  0.00    +0.179 C 
ATOM     11  O   UNL     1      16.007   4.136  -5.262  1.00  0.00    -0.370 OA
ATOM     12  O   UNL     1      14.640   1.358  -5.152  1.00  0.00    -0.342 OA
ATOM     13  C   UNL     1      14.829   3.982  -6.095  1.00  0.00    +0.184 C 
ATOM     14  C   UNL     1      13.855   2.315  -4.450  1.00  0.00    +0.279 C 
ATOM     15  C   UNL     1      13.612   3.626  -5.231  1.00  0.00    +0.202 C 
BRANCH  14  16
ATOM     16  O   UNL     1      14.480   2.591  -3.200  1.00  0.00    -0.366 OA
ATOM     17  H   UNL     1      15.429   2.656  -3.410  1.00  0.00    +0.213 HD
ENDBRANCH  14  16
BRANCH  15  18
ATOM     18  O   UNL     1      13.306   4.703  -4.336  1.00  0.00    -0.385 OA
ATOM     19  H   UNL     1      12.336   4.823  -4.433  1.00  0.00    +0.211 HD
ENDBRANCH  15  18
ENDBRANCH   7   8
ENDBRANCH   1   7
BRANCH   2  20
ATOM     20  O   UNL     1      12.962   4.078  -9.957  1.00  0.00    -0.385 OA
ATOM     21  H   UNL     1      13.273   4.407  -9.090  1.00  0.00    +0.211 HD
ENDBRANCH   2  20
BRANCH   3  22
ATOM     22  O   UNL     1      11.981   2.572 -12.075  1.00  0.00    -0.387 OA
ATOM     23  H   UNL     1      12.210   2.347 -13.002  1.00  0.00    +0.211 HD
ENDBRANCH   3  22
BRANCH   5  24
ATOM     24  C   UNL     1      12.872  -0.626  -8.907  1.00  0.00    +0.220 C 
BRANCH  24  25
ATOM     25  O   UNL     1      13.059  -2.039  -8.874  1.00  0.00    -0.245 OA
BRANCH  25  26
ATOM     26  S   UNL     1      11.916  -2.969  -9.555  1.00  0.00    +0.397 S 
ATOM     27  O   UNL     1      12.470  -3.690 -10.678  1.00  0.00    -0.169 OA
ATOM     28  O   UNL     1      10.702  -2.191  -9.663  1.00  0.00    -0.169 OA
BRANCH  26  29
ATOM     29  O   UNL     1      11.616  -4.037  -8.388  1.00  0.00    -0.264 OA
ATOM     30  H   UNL     1      12.278  -4.752  -8.479  1.00  0.00    +0.236 HD
ENDBRANCH  26  29
ENDBRANCH  25  26
ENDBRANCH  24  25
ENDBRANCH   5  24
BRANCH   4  31
ATOM     31  O   UNL     1      11.631   0.147 -11.230  1.00  0.00    -0.387 OA
ATOM     32  H   UNL     1      11.124   0.986 -11.148  1.00  0.00    +0.211 HD
ENDBRANCH   4  31
TORSDOF 11
ENDMDL
MODEL 5
REMARK VINA RESULT:    -6.062     18.344     20.751
REMARK INTER + INTRA:         -10.217
REMARK INTER:                  -9.029
REMARK INTRA:                  -1.188
REMARK UNBOUND:                -1.320
REMARK SMILES O=S(=O)(O)OC[C@@H]1O[C@H](O[C@H]2[C@@H]3OC[C@H]2O[C@@H](O)[C@H]3O)[C@@H](O)[C@H](O)[C@@H]1O
REMARK SMILES IDX 9 1 21 2 23 3 25 4 7 5 8 6 10 7 11 8 14 9 15 10 13 11 16 12
REMARK SMILES IDX 12 13 17 14 19 15 18 16 20 18 22 20 24 22 6 24 5 25 2 26
REMARK SMILES IDX 1 27 3 28 4 29 26 31
REMARK H PARENT 18 17 20 19 22 21 24 23 4 30 26 32
ROOT
ATOM      1  C   UNL     1     -16.965   2.694   1.845  1.00  0.00    +0.282 C 
ATOM      2  C   UNL     1     -18.203   3.365   1.220  1.00  0.00    +0.202 C 
ATOM      3  C   UNL     1     -17.744   4.199   0.037  1.00  0.00    +0.179 C 
ATOM      4  C   UNL     1     -17.164   3.276  -1.038  1.00  0.00    +0.177 C 
ATOM      5  C   UNL     1     -16.377   2.083  -0.447  1.00  0.00    +0.180 C 
ATOM      6  O   UNL     1     -15.954   2.323   0.909  1.00  0.00    -0.341 OA
ENDROOT
BRANCH   1   7
ATOM      7  O   UNL     1     -17.417   1.600   2.647  1.00  0.00    -0.341 OA
BRANCH   7   8
ATOM      8  C   UNL     1     -16.684   1.459   3.859  1.00  0.00    +0.184 C 
ATOM      9  C   UNL     1     -15.477   0.201   5.426  1.00  0.00    +0.195 C 
ATOM     10  C   UNL     1     -15.809   0.217   3.933  1.00  0.00    +0.179 C 
ATOM     11  O   UNL     1     -16.643   0.746   6.097  1.00  0.00    -0.370 OA
ATOM     12  O   UNL     1     -16.544  -0.942   3.500  1.00  0.00    -0.342 OA
ATOM     13  C   UNL     1     -17.573   1.139   5.056  1.00  0.00    +0.184 C 
ATOM     14  C   UNL     1     -17.715  -1.259   4.244  1.00  0.00    +0.279 C 
ATOM     15  C   UNL     1     -18.514  -0.026   4.719  1.00  0.00    +0.202 C 
BRANCH  14  16
ATOM     16  O   UNL     1     -17.345  -2.070   5.356  1.00  0.00    -0.366 OA
ATOM     17  H   UNL     1     -16.786  -1.491   5.905  1.00  0.00    +0.213 HD
ENDBRANCH  14  16
BRANCH  15  18
ATOM     18  O   UNL     1     -19.328  -0.352   5.854  1.00  0.00    -0.385 OA
ATOM     19  H   UNL     1     -19.300  -1.332   5.891  1.00  0.00    +0.211 HD
ENDBRANCH  15  18
ENDBRANCH   7   8
ENDBRANCH   1   7
BRANCH   2  20
ATOM     20  O   UNL     1     -18.873   4.216   2.167  1.00  0.00    -0.385 OA
ATOM     21  H   UNL     1     -19.803   4.270   1.871  1.00  0.00    +0.211 HD
ENDBRANCH   2  20
BRANCH   3  22
ATOM     22  O   UNL     1     -18.849   4.935  -0.517  1.00  0.00    -0.387 OA
ATOM     23  H   UNL     1     -19.275   4.313  -1.143  1.00  0.00    +0.211 HD
ENDBRANCH   3  22
BRANCH   5  24
ATOM     24  C   UNL     1     -17.058   0.711  -0.600  1.00  0.00    +0.220 C 
BRANCH  24  25
ATOM     25  O   UNL     1     -16.577   0.098  -1.795  1.00  0.00    -0.245 OA
BRANCH  25  26
ATOM     26  S   UNL     1     -17.644  -0.712  -2.712  1.00  0.00    +0.397 S 
ATOM     27  O   UNL     1     -18.491   0.218  -3.423  1.00  0.00    -0.169 OA
ATOM     28  O   UNL     1     -18.183  -1.800  -1.927  1.00  0.00    -0.169 OA
BRANCH  26  29
ATOM     29  O   UNL     1     -16.684  -1.422  -3.791  1.00  0.00    -0.264 OA
ATOM     30  H   UNL     1     -16.258  -2.179  -3.340  1.00  0.00    +0.236 HD
ENDBRANCH  26  29
ENDBRANCH  25  26
ENDBRANCH  24  25
ENDBRANCH   5  24
BRANCH   4  31
ATOM     31  O   UNL     1     -18.222   2.832  -1.896  1.00  0.00    -0.387 OA
ATOM     32  H   UNL     1     -18.306   1.869  -1.713  1.00  0.00    +0.211 HD
ENDBRANCH   4  31
TORSDOF 11
ENDMDL
MODEL 6
REMARK VINA RESULT:    -6.055      1.992      5.953
REMARK INTER + INTRA:         -10.207
REMARK INTER:                  -9.028
REMARK INTRA:                  -1.178
REMARK UNBOUND:                -1.320
REMARK SMILES O=S(=O)(O)OC[C@@H]1O[C@H](O[C@H]2[C@@H]3OC[C@H]2O[C@@H](O)[C@H]3O)[C@@H](O)[C@H](O)[C@@H]1O
REMARK SMILES IDX 9 1 21 2 23 3 25 4 7 5 8 6 10 7 11 8 14 9 15 10 13 11 16 12
REMARK SMILES IDX 12 13 17 14 19 15 18 16 20 18 22 20 24 22 6 24 5 25 2 26
REMARK SMILES IDX 1 27 3 28 4 29 26 31
REMARK H PARENT 18 17 20 19 22 21 24 23 4 30 26 32
ROOT
ATOM      1  C   UNL     1      -3.437   5.584 -11.604  1.00  0.00    +0.282 C 
ATOM      2  C   UNL     1      -3.723   4.843 -10.284  1.00  0.00    +0.202 C 
ATOM      3  C   UNL     1      -2.638   3.800 -10.080  1.00  0.00    +0.179 C 
ATOM      4  C   UNL     1      -1.289   4.502  -9.899  1.00  0.00    +0.177 C 
ATOM      5  C   UNL     1      -1.141   5.762 -10.785  1.00  0.00    +0.180 C 
ATOM      6  O   UNL     1      -2.052   5.758 -11.901  1.00  0.00    -0.341 OA
ENDROOT
BRANCH   1   7
ATOM      7  O   UNL     1      -4.165   6.815 -11.582  1.00  0.00    -0.341 OA
BRANCH   7   8
ATOM      8  C   UNL     1      -3.913   7.630 -12.721  1.00  0.00    +0.184 C 
ATOM      9  C   UNL     1      -3.517   9.697 -13.754  1.00  0.00    +0.195 C 
ATOM     10  C   UNL     1      -3.322   8.996 -12.408  1.00  0.00    +0.179 C 
ATOM     11  O   UNL     1      -4.737   9.148 -14.313  1.00  0.00    -0.370 OA
ATOM     12  O   UNL     1      -4.043   9.621 -11.331  1.00  0.00    -0.342 OA
ATOM     13  C   UNL     1      -5.190   8.122 -13.392  1.00  0.00    +0.184 C 
ATOM     14  C   UNL     1      -5.431   9.850 -11.551  1.00  0.00    +0.279 C 
ATOM     15  C   UNL     1      -6.137   8.730 -12.348  1.00  0.00    +0.202 C 
BRANCH  14  16
ATOM     16  O   UNL     1      -5.589  11.103 -12.210  1.00  0.00    -0.366 OA
ATOM     17  H   UNL     1      -6.459  11.043 -12.644  1.00  0.00    +0.213 HD
ENDBRANCH  14  16
BRANCH  15  18
ATOM     18  O   UNL     1      -7.324   9.225 -12.980  1.00  0.00    -0.385 OA
ATOM     19  H   UNL     1      -7.870   9.554 -12.234  1.00  0.00    +0.211 HD
ENDBRANCH  15  18
ENDBRANCH   7   8
ENDBRANCH   1   7
BRANCH   2  20
ATOM     20  O   UNL     1      -5.005   4.191 -10.314  1.00  0.00    -0.385 OA
ATOM     21  H   UNL     1      -5.435   4.480 -11.143  1.00  0.00    +0.211 HD
ENDBRANCH   2  20
BRANCH   3  22
ATOM     22  O   UNL     1      -2.918   3.005  -8.916  1.00  0.00    -0.387 OA
ATOM     23  H   UNL     1      -2.334   2.222  -9.001  1.00  0.00    +0.211 HD
ENDBRANCH   3  22
BRANCH   5  24
ATOM     24  C   UNL     1      -1.172   7.101 -10.025  1.00  0.00    +0.220 C 
BRANCH  24  25
ATOM     25  O   UNL     1       0.100   7.729 -10.164  1.00  0.00    -0.245 OA
BRANCH  25  26
ATOM     26  S   UNL     1       0.923   8.080  -8.809  1.00  0.00    +0.397 S 
ATOM     27  O   UNL     1       0.519   9.373  -8.307  1.00  0.00    -0.169 OA
ATOM     28  O   UNL     1       2.311   7.734  -9.019  1.00  0.00    -0.169 OA
BRANCH  26  29
ATOM     29  O   UNL     1       0.373   6.965  -7.787  1.00  0.00    -0.264 OA
ATOM     30  H   UNL     1      -0.495   6.668  -8.128  1.00  0.00    +0.236 HD
ENDBRANCH  26  29
ENDBRANCH  25  26
ENDBRANCH  24  25
ENDBRANCH   5  24
BRANCH   4  31
ATOM     31  O   UNL     1      -1.104   4.811  -8.513  1.00  0.00    -0.387 OA
ATOM     32  H   UNL     1      -0.332   4.269  -8.236  1.00  0.00    +0.211 HD
ENDBRANCH   4  31
TORSDOF 11
ENDMDL
MODEL 7
REMARK VINA RESULT:    -6.052     16.860     19.773
REMARK INTER + INTRA:         -10.202
REMARK INTER:                  -9.495
REMARK INTRA:                  -0.707
REMARK UNBOUND:                -1.320
REMARK SMILES O=S(=O)(O)OC[C@@H]1O[C@H](O[C@H]2[C@@H]3OC[C@H]2O[C@@H](O)[C@H]3O)[C@@H](O)[C@H](O)[C@@H]1O
REMARK SMILES IDX 9 1 21 2 23 3 25 4 7 5 8 6 10 7 11 8 14 9 15 10 13 11 16 12
REMARK SMILES IDX 12 13 17 14 19 15 18 16 20 18 22 20 24 22 6 24 5 25 2 26
REMARK SMILES IDX 1 27 3 28 4 29 26 31
REMARK H PARENT 18 17 20 19 22 21 24 23 4 30 26 32
ROOT
ATOM      1  C   UNL     1     -18.035   1.231  -0.096  1.00  0.00    +0.282 C 
ATOM      2  C   UNL     1     -19.132   2.089   0.566  1.00  0.00    +0.202 C 
ATOM      3  C   UNL     1     -18.474   2.977   1.609  1.00  0.00    +0.179 C 
ATOM      4  C   UNL     1     -17.522   3.953   0.913  1.00  0.00    +0.177 C 
ATOM      5  C   UNL     1     -16.786   3.322  -0.293  1.00  0.00    +0.180 C 
ATOM      6  O   UNL     1     -16.774   1.883  -0.236  1.00  0.00    -0.341 OA
ENDROOT
BRANCH   1   7
ATOM      7  O   UNL     1     -18.554   0.738  -1.334  1.00  0.00    -0.341 OA
BRANCH   7   8
ATOM      8  C   UNL     1     -17.540   0.242  -2.202  1.00  0.00    +0.184 C 
ATOM      9  C   UNL     1     -16.762  -0.482  -4.292  1.00  0.00    +0.195 C 
ATOM     10  C   UNL     1     -17.816   0.445  -3.684  1.00  0.00    +0.179 C 
ATOM     11  O   UNL     1     -16.618  -1.583  -3.358  1.00  0.00    -0.370 OA
ATOM     12  O   UNL     1     -19.165   0.060  -4.002  1.00  0.00    -0.342 OA
ATOM     13  C   UNL     1     -17.474  -1.281  -2.226  1.00  0.00    +0.184 C 
ATOM     14  C   UNL     1     -19.513  -1.294  -3.735  1.00  0.00    +0.279 C 
ATOM     15  C   UNL     1     -18.875  -1.868  -2.450  1.00  0.00    +0.202 C 
BRANCH  14  16
ATOM     16  O   UNL     1     -19.158  -2.089  -4.863  1.00  0.00    -0.366 OA
ATOM     17  H   UNL     1     -18.956  -1.443  -5.563  1.00  0.00    +0.213 HD
ENDBRANCH  14  16
BRANCH  15  18
ATOM     18  O   UNL     1     -18.811  -3.299  -2.508  1.00  0.00    -0.385 OA
ATOM     19  H   UNL     1     -19.382  -3.592  -1.765  1.00  0.00    +0.211 HD
ENDBRANCH  15  18
ENDBRANCH   7   8
ENDBRANCH   1   7
BRANCH   2  20
ATOM     20  O   UNL     1     -20.126   1.269   1.203  1.00  0.00    -0.385 OA
ATOM     21  H   UNL     1     -20.535   1.827   1.893  1.00  0.00    +0.211 HD
ENDBRANCH   2  20
BRANCH   3  22
ATOM     22  O   UNL     1     -19.469   3.720   2.333  1.00  0.00    -0.387 OA
ATOM     23  H   UNL     1     -19.919   3.054   2.895  1.00  0.00    +0.211 HD
ENDBRANCH   3  22
BRANCH   5  24
ATOM     24  C   UNL     1     -17.234   3.837  -1.673  1.00  0.00    +0.220 C 
BRANCH  24  25
ATOM     25  O   UNL     1     -17.152   5.261  -1.673  1.00  0.00    -0.245 OA
BRANCH  25  26
ATOM     26  S   UNL     1     -17.190   6.022  -3.106  1.00  0.00    +0.397 S 
ATOM     27  O   UNL     1     -18.507   5.909  -3.690  1.00  0.00    -0.169 OA
ATOM     28  O   UNL     1     -15.992   5.674  -3.836  1.00  0.00    -0.169 OA
BRANCH  26  29
ATOM     29  O   UNL     1     -16.976   7.558  -2.674  1.00  0.00    -0.264 OA
ATOM     30  H   UNL     1     -17.221   8.107  -3.447  1.00  0.00    +0.236 HD
ENDBRANCH  26  29
ENDBRANCH  25  26
ENDBRANCH  24  25
ENDBRANCH   5  24
BRANCH   4  31
ATOM     31  O   UNL     1     -18.250   5.125   0.528  1.00  0.00    -0.387 OA
ATOM     32  H   UNL     1     -17.753   5.488  -0.239  1.00  0.00    +0.211 HD
ENDBRANCH   4  31
TORSDOF 11
ENDMDL
MODEL 8
REMARK VINA RESULT:    -6.026     17.849     19.486
REMARK INTER + INTRA:         -10.164
REMARK INTER:                  -9.068
REMARK INTRA:                  -1.096
REMARK UNBOUND:                -1.320
REMARK SMILES O=S(=O)(O)OC[C@@H]1O[C@H](O[C@H]2[C@@H]3OC[C@H]2O[C@@H](O)[C@H]3O)[C@@H](O)[C@H](O)[C@@H]1O
REMARK SMILES IDX 9 1 21 2 23 3 25 4 7 5 8 6 10 7 11 8 14 9 15 10 13 11 16 12
REMARK SMILES IDX 12 13 17 14 19 15 18 16 20 18 22 20 24 22 6 24 5 25 2 26
REMARK SMILES IDX 1 27 3 28 4 29 26 31
REMARK H PARENT 18 17 20 19 22 21 24 23 4 30 26 32
ROOT
ATOM      1  C   UNL     1     -16.894   3.365  -0.470  1.00  0.00    +0.282 C 
ATOM      2  C   UNL     1     -18.013   4.401  -0.692  1.00  0.00    +0.202 C 
ATOM      3  C   UNL     1     -17.797   5.049  -2.049  1.00  0.00    +0.179 C 
ATOM      4  C   UNL     1     -17.962   3.993  -3.146  1.00  0.00    +0.177 C 
ATOM      5  C   UNL     1     -17.408   2.607  -2.735  1.00  0.00    +0.180 C 
ATOM      6  O   UNL     1     -16.463   2.693  -1.652  1.00  0.00    -0.341 OA
ENDROOT
BRANCH   1   7
ATOM      7  O   UNL     1     -17.324   2.471   0.560  1.00  0.00    -0.341 OA
BRANCH   7   8
ATOM      8  C   UNL     1     -16.287   2.143   1.479  1.00  0.00    +0.184 C 
ATOM      9  C   UNL     1     -15.452   1.020   3.360  1.00  0.00    +0.195 C 
ATOM     10  C   UNL     1     -16.523   0.871   2.278  1.00  0.00    +0.179 C 
ATOM     11  O   UNL     1     -15.332   2.446   3.604  1.00  0.00    -0.370 OA
ATOM     12  O   UNL     1     -17.863   0.849   2.802  1.00  0.00    -0.342 OA
ATOM     13  C   UNL     1     -16.218   3.103   2.661  1.00  0.00    +0.184 C 
ATOM     14  C   UNL     1     -18.216   1.916   3.676  1.00  0.00    +0.279 C 
ATOM     15  C   UNL     1     -17.611   3.281   3.281  1.00  0.00    +0.202 C 
BRANCH  14  16
ATOM     16  O   UNL     1     -17.830   1.567   5.003  1.00  0.00    -0.366 OA
ATOM     17  H   UNL     1     -18.527   1.946   5.568  1.00  0.00    +0.213 HD
ENDBRANCH  14  16
BRANCH  15  18
ATOM     18  O   UNL     1     -17.543   4.156   4.414  1.00  0.00    -0.385 OA
ATOM     19  H   UNL     1     -17.918   5.001   4.084  1.00  0.00    +0.211 HD
ENDBRANCH  15  18
ENDBRANCH   7   8
ENDBRANCH   1   7
BRANCH   2  20
ATOM     20  O   UNL     1     -17.996   5.418   0.324  1.00  0.00    -0.385 OA
ATOM     21  H   UNL     1     -18.607   6.117   0.018  1.00  0.00    +0.211 HD
ENDBRANCH   2  20
BRANCH   3  22
ATOM     22  O   UNL     1     -18.752   6.102  -2.260  1.00  0.00    -0.387 OA
ATOM     23  H   UNL     1     -18.326   6.904  -1.889  1.00  0.00    +0.211 HD
ENDBRANCH   3  22
BRANCH   5  24
ATOM     24  C   UNL     1     -18.476   1.527  -2.480  1.00  0.00    +0.220 C 
BRANCH  24  25
ATOM     25  O   UNL     1     -18.083   0.334  -3.154  1.00  0.00    -0.245 OA
BRANCH  25  26
ATOM     26  S   UNL     1     -17.655  -0.942  -2.247  1.00  0.00    +0.397 S 
ATOM     27  O   UNL     1     -18.743  -1.892  -2.188  1.00  0.00    -0.169 OA
ATOM     28  O   UNL     1     -16.995  -0.453  -1.058  1.00  0.00    -0.169 OA
BRANCH  26  29
ATOM     29  O   UNL     1     -16.479  -1.600  -3.128  1.00  0.00    -0.264 OA
ATOM     30  H   UNL     1     -15.666  -1.572  -2.584  1.00  0.00    +0.236 HD
ENDBRANCH  26  29
ENDBRANCH  25  26
ENDBRANCH  24  25
ENDBRANCH   5  24
BRANCH   4  31
ATOM     31  O   UNL     1     -19.342   3.915  -3.519  1.00  0.00    -0.387 OA
ATOM     32  H   UNL     1     -19.574   2.964  -3.429  1.00  0.00    +0.211 HD
ENDBRANCH   4  31
TORSDOF 11
ENDMDL
MODEL 9
REMARK VINA RESULT:    -5.969      3.643      6.250
REMARK INTER + INTRA:         -10.081
REMARK INTER:                  -8.746
REMARK INTRA:                  -1.336
REMARK UNBOUND:                -1.320
REMARK SMILES O=S(=O)(O)OC[C@@H]1O[C@H](O[C@H]2[C@@H]3OC[C@H]2O[C@@H](O)[C@H]3O)[C@@H](O)[C@H](O)[C@@H]1O
REMARK SMILES IDX 9 1 21 2 23 3 25 4 7 5 8 6 10 7 11 8 14 9 15 10 13 11 16 12
REMARK SMILES IDX 12 13 17 14 19 15 18 16 20 18 22 20 24 22 6 24 5 25 2 26
REMARK SMILES IDX 1 27 3 28 4 29 26 31
REMARK H PARENT 18 17 20 19 22 21 24 23 4 30 26 32
ROOT
ATOM      1  C   UNL     1       1.532   7.876 -10.061  1.00  0.00    +0.282 C 
ATOM      2  C   UNL     1       1.211   6.504  -9.438  1.00  0.00    +0.202 C 
ATOM      3  C   UNL     1      -0.295   6.402  -9.266  1.00  0.00    +0.179 C 
ATOM      4  C   UNL     1      -0.964   6.418 -10.643  1.00  0.00    +0.177 C 
ATOM      5  C   UNL     1      -0.256   7.362 -11.646  1.00  0.00    +0.180 C 
ATOM      6  O   UNL     1       0.556   8.352 -10.987  1.00  0.00    -0.341 OA
ENDROOT
BRANCH   1   7
ATOM      7  O   UNL     1       2.847   7.808 -10.618  1.00  0.00    -0.341 OA
BRANCH   7   8
ATOM      8  C   UNL     1       3.730   8.787 -10.080  1.00  0.00    +0.184 C 
ATOM      9  C   UNL     1       5.829   9.811  -9.882  1.00  0.00    +0.195 C 
ATOM     10  C   UNL     1       4.998   9.013 -10.888  1.00  0.00    +0.179 C 
ATOM     11  O   UNL     1       5.454   9.309  -8.573  1.00  0.00    -0.370 OA
ATOM     12  O   UNL     1       5.595   7.755 -11.250  1.00  0.00    -0.342 OA
ATOM     13  C   UNL     1       4.402   8.333  -8.789  1.00  0.00    +0.184 C 
ATOM     14  C   UNL     1       5.978   6.907 -10.173  1.00  0.00    +0.279 C 
ATOM     15  C   UNL     1       5.008   6.935  -8.971  1.00  0.00    +0.202 C 
BRANCH  14  16
ATOM     16  O   UNL     1       7.294   7.263  -9.757  1.00  0.00    -0.366 OA
ATOM     17  H   UNL     1       7.175   7.639  -8.866  1.00  0.00    +0.213 HD
ENDBRANCH  14  16
BRANCH  15  18
ATOM     18  O   UNL     1       5.671   6.519  -7.770  1.00  0.00    -0.385 OA
ATOM     19  H   UNL     1       5.715   7.337  -7.229  1.00  0.00    +0.211 HD
ENDBRANCH  15  18
ENDBRANCH   7   8
ENDBRANCH   1   7
BRANCH   2  20
ATOM     20  O   UNL     1       1.844   6.348  -8.157  1.00  0.00    -0.385 OA
ATOM     21  H   UNL     1       2.674   5.859  -8.323  1.00  0.00    +0.211 HD
ENDBRANCH   2  20
BRANCH   3  22
ATOM     22  O   UNL     1      -0.640   5.183  -8.587  1.00  0.00    -0.387 OA
ATOM     23  H   UNL     1      -0.935   4.575  -9.298  1.00  0.00    +0.211 HD
ENDBRANCH   3  22
BRANCH   5  24
ATOM     24  C   UNL     1       0.510   6.654 -12.778  1.00  0.00    +0.220 C 
BRANCH  24  25
ATOM     25  O   UNL     1       0.169   7.279 -14.014  1.00  0.00    -0.245 OA
BRANCH  25  26
ATOM     26  S   UNL     1       1.022   8.586 -14.461  1.00  0.00    +0.397 S 
ATOM     27  O   UNL     1       0.309   9.789 -14.097  1.00  0.00    -0.169 OA
ATOM     28  O   UNL     1       1.525   8.364 -15.798  1.00  0.00    -0.169 OA
BRANCH  26  29
ATOM     29  O   UNL     1       2.318   8.480 -13.512  1.00  0.00    -0.264 OA
ATOM     30  H   UNL     1       3.100   8.643 -14.078  1.00  0.00    +0.236 HD
ENDBRANCH  26  29
ENDBRANCH  25  26
ENDBRANCH  24  25
ENDBRANCH   5  24
BRANCH   4  31
ATOM     31  O   UNL     1      -1.036   5.080 -11.146  1.00  0.00    -0.387 OA
ATOM     32  H   UNL     1      -0.292   5.011 -11.786  1.00  0.00    +0.211 HD
ENDBRANCH   4  31
TORSDOF 11
ENDMDL
