MODEL 1
REMARK VINA RESULT:    -6.324      0.000      0.000
REMARK INTER + INTRA:         -10.342
REMARK INTER:                  -9.281
REMARK INTRA:                  -1.061
REMARK UNBOUND:                -1.061
REMARK SMILES O=S(=O)(O)OC[C@@H]1O[C@H](O[C@H]2[C@@H]3OC[C@H]2O[C@@H](O)[C@H]3O)[C@@H](O)[C@H](O)[C@@H]1O
REMARK SMILES IDX 9 1 21 2 23 3 25 4 7 5 8 6 10 7 11 8 14 9 15 10 13 11 16 12
REMARK SMILES IDX 12 13 17 14 19 15 18 16 20 18 22 20 24 22 6 24 5 25 2 26
REMARK SMILES IDX 1 27 3 28 4 29 26 31
REMARK H PARENT 18 17 20 19 22 21 24 23 4 30 26 32
ROOT
ATOM      1  C   UNL     1     -11.430   3.093   8.644  1.00  0.00    +0.282 C 
ATOM      2  C   UNL     1     -10.076   2.357   8.637  1.00  0.00    +0.202 C 
ATOM      3  C   UNL     1      -9.536   2.371   7.217  1.00  0.00    +0.179 C 
ATOM      4  C   UNL     1      -9.245   3.816   6.801  1.00  0.00    +0.177 C 
ATOM      5  C   UNL     1     -10.280   4.823   7.358  1.00  0.00    +0.180 C 
ATOM      6  O   UNL     1     -11.516   4.187   7.734  1.00  0.00    -0.341 OA
ENDROOT
BRANCH   1   7
ATOM      7  O   UNL     1     -11.720   3.461   9.995  1.00  0.00    -0.341 OA
BRANCH   7   8
ATOM      8  C   UNL     1     -13.058   3.159  10.378  1.00  0.00    +0.184 C 
ATOM      9  C   UNL     1     -14.810   3.082  11.933  1.00  0.00    +0.195 C 
ATOM     10  C   UNL     1     -13.541   3.879  11.628  1.00  0.00    +0.179 C 
ATOM     11  O   UNL     1     -14.538   1.724  11.502  1.00  0.00    -0.370 OA
ATOM     12  O   UNL     1     -12.551   3.795  12.669  1.00  0.00    -0.342 OA
ATOM     13  C   UNL     1     -13.218   1.736  10.900  1.00  0.00    +0.184 C 
ATOM     14  C   UNL     1     -12.197   2.484  13.098  1.00  0.00    +0.279 C 
ATOM     15  C   UNL     1     -12.150   1.439  11.962  1.00  0.00    +0.202 C 
BRANCH  14  16
ATOM     16  O   UNL     1     -13.111   2.074  14.112  1.00  0.00    -0.366 OA
ATOM     17  H   UNL     1     -12.556   1.624  14.774  1.00  0.00    +0.213 HD
ENDBRANCH  14  16
BRANCH  15  18
ATOM     18  O   UNL     1     -12.319   0.114  12.481  1.00  0.00    -0.385 OA
ATOM     19  H   UNL     1     -11.411  -0.158  12.735  1.00  0.00    +0.211 HD
ENDBRANCH  15  18
ENDBRANCH   7   8
ENDBRANCH   1   7
BRANCH   2  20
ATOM     20  O   UNL     1     -10.216   0.994   9.075  1.00  0.00    -0.385 OA
ATOM     21  H   UNL     1     -10.062   0.439   8.286  1.00  0.00    +0.211 HD
ENDBRANCH   2  20
BRANCH   3  22
ATOM     22  O   UNL     1      -8.324   1.602   7.133  1.00  0.00    -0.387 OA
ATOM     23  H   UNL     1      -7.774   2.072   6.472  1.00  0.00    +0.211 HD
ENDBRANCH   3  22
BRANCH   5  24
ATOM     24  C   UNL     1      -9.754   5.754   8.466  1.00  0.00    +0.220 C 
BRANCH  24  25
ATOM     25  O   UNL     1      -8.786   6.633   7.897  1.00  0.00    -0.245 OA
BRANCH  25  26
ATOM     26  S   UNL     1      -7.618   7.204   8.868  1.00  0.00    +0.397 S 
ATOM     27  O   UNL     1      -6.485   7.631   8.079  1.00  0.00    -0.169 OA
ATOM     28  O   UNL     1      -7.480   6.303   9.990  1.00  0.00    -0.169 OA
BRANCH  26  29
ATOM     29  O   UNL     1      -8.310   8.521   9.483  1.00  0.00    -0.264 OA
ATOM     30  H   UNL     1      -7.956   9.287   8.987  1.00  0.00    +0.236 HD
ENDBRANCH  26  29
ENDBRANCH  25  26
ENDBRANCH  24  25
ENDBRANCH   5  24
BRANCH   4  31
ATOM     31  O   UNL     1      -7.913   4.160   7.199  1.00  0.00    -0.387 OA
ATOM     32  H   UNL     1      -7.952   4.220   8.180  1.00  0.00    +0.211 HD
ENDBRANCH   4  31
TORSDOF 11
ENDMDL
MODEL 2
REMARK VINA RESULT:    -6.217      3.251      6.997
REMARK INTER + INTRA:         -10.185
REMARK INTER:                  -9.111
REMARK INTRA:                  -1.074
REMARK UNBOUND:                -1.061
REMARK SMILES O=S(=O)(O)OC[C@@H]1O[C@H](O[C@H]2[C@@H]3OC[C@H]2O[C@@H](O)[C@H]3O)[C@@H](O)[C@H](O)[C@@H]1O
REMARK SMILES IDX 9 1 21 2 23 3 25 4 7 5 8 6 10 7 11 8 14 9 15 10 13 11 16 12
REMARK SMILES IDX 12 13 17 14 19 15 18 16 20 18 22 20 24 22 6 24 5 25 2 26
REMARK SMILES IDX 1 27 3 28 4 29 26 31
REMARK H PARENT 18 17 20 19 22 21 24 23 4 30 26 32
ROOT
ATOM      1  C   UNL     1     -10.298   3.301   5.856  1.00  0.00    +0.282 C 
ATOM      2  C   UNL     1     -11.245   3.345   7.071  1.00  0.00    +0.202 C 
ATOM      3  C   UNL     1     -10.684   2.425   8.142  1.00  0.00    +0.179 C 
ATOM      4  C   UNL     1      -9.337   2.970   8.623  1.00  0.00    +0.177 C 
ATOM      5  C   UNL     1      -8.502   3.604   7.484  1.00  0.00    +0.180 C 
ATOM      6  O   UNL     1      -8.918   3.151   6.182  1.00  0.00    -0.341 OA
ENDROOT
BRANCH   1   7
ATOM      7  O   UNL     1     -10.564   4.454   5.053  1.00  0.00    -0.341 OA
BRANCH   7   8
ATOM      8  C   UNL     1      -9.823   4.467   3.837  1.00  0.00    +0.184 C 
ATOM      9  C   UNL     1      -8.394   5.486   2.283  1.00  0.00    +0.195 C 
ATOM     10  C   UNL     1      -8.716   5.509   3.778  1.00  0.00    +0.179 C 
ATOM     11  O   UNL     1      -9.648   5.198   1.612  1.00  0.00    -0.370 OA
ATOM     12  O   UNL     1      -9.202   6.784   4.236  1.00  0.00    -0.342 OA
ATOM     13  C   UNL     1     -10.635   4.981   2.653  1.00  0.00    +0.184 C 
ATOM     14  C   UNL     1     -10.289   7.344   3.507  1.00  0.00    +0.279 C 
ATOM     15  C   UNL     1     -11.321   6.304   3.017  1.00  0.00    +0.202 C 
BRANCH  14  16
ATOM     16  O   UNL     1      -9.768   8.084   2.406  1.00  0.00    -0.366 OA
ATOM     17  H   UNL     1      -9.557   8.959   2.778  1.00  0.00    +0.213 HD
ENDBRANCH  14  16
BRANCH  15  18
ATOM     18  O   UNL     1     -12.058   6.807   1.895  1.00  0.00    -0.385 OA
ATOM     19  H   UNL     1     -12.599   6.042   1.604  1.00  0.00    +0.211 HD
ENDBRANCH  15  18
ENDBRANCH   7   8
ENDBRANCH   1   7
BRANCH   2  20
ATOM     20  O   UNL     1     -12.570   2.910   6.721  1.00  0.00    -0.385 OA
ATOM     21  H   UNL     1     -13.180   3.409   7.298  1.00  0.00    +0.211 HD
ENDBRANCH   2  20
BRANCH   3  22
ATOM     22  O   UNL     1     -11.588   2.344   9.257  1.00  0.00    -0.387 OA
ATOM     23  H   UNL     1     -12.470   2.202   8.855  1.00  0.00    +0.211 HD
ENDBRANCH   3  22
BRANCH   5  24
ATOM     24  C   UNL     1      -8.375   5.137   7.544  1.00  0.00    +0.220 C 
BRANCH  24  25
ATOM     25  O   UNL     1      -7.509   5.478   8.624  1.00  0.00    -0.245 OA
BRANCH  25  26
ATOM     26  S   UNL     1      -6.646   6.847   8.500  1.00  0.00    +0.397 S 
ATOM     27  O   UNL     1      -6.108   6.972   7.164  1.00  0.00    -0.169 OA
ATOM     28  O   UNL     1      -5.819   6.970   9.678  1.00  0.00    -0.169 OA
BRANCH  26  29
ATOM     29  O   UNL     1      -7.782   7.974   8.677  1.00  0.00    -0.264 OA
ATOM     30  H   UNL     1      -7.320   8.823   8.833  1.00  0.00    +0.236 HD
ENDBRANCH  26  29
ENDBRANCH  25  26
ENDBRANCH  24  25
ENDBRANCH   5  24
BRANCH   4  31
ATOM     31  O   UNL     1      -9.561   3.901   9.688  1.00  0.00    -0.387 OA
ATOM     32  H   UNL     1      -9.600   3.348  10.501  1.00  0.00    +0.211 HD
ENDBRANCH   4  31
TORSDOF 11
ENDMDL
MODEL 3
REMARK VINA RESULT:    -6.079     56.266     58.851
REMARK INTER + INTRA:          -9.983
REMARK INTER:                  -9.320
REMARK INTRA:                  -0.663
REMARK UNBOUND:                -1.061
REMARK SMILES O=S(=O)(O)OC[C@@H]1O[C@H](O[C@H]2[C@@H]3OC[C@H]2O[C@@H](O)[C@H]3O)[C@@H](O)[C@H](O)[C@@H]1O
REMARK SMILES IDX 9 1 21 2 23 3 25 4 7 5 8 6 10 7 11 8 14 9 15 10 13 11 16 12
REMARK SMILES IDX 12 13 17 14 19 15 18 16 20 18 22 20 24 22 6 24 5 25 2 26
REMARK SMILES IDX 1 27 3 28 4 29 26 31
REMARK H PARENT 18 17 20 19 22 21 24 23 4 30 26 32
ROOT
ATOM      1  C   UNL     1      -8.501 -17.019 -43.979  1.00  0.00    +0.282 C 
ATOM      2  C   UNL     1      -9.292 -15.837 -44.572  1.00  0.00    +0.202 C 
ATOM      3  C   UNL     1      -8.300 -14.771 -45.002  1.00  0.00    +0.179 C 
ATOM      4  C   UNL     1      -7.427 -15.319 -46.134  1.00  0.00    +0.177 C 
ATOM      5  C   UNL     1      -7.085 -16.818 -45.960  1.00  0.00    +0.180 C 
ATOM      6  O   UNL     1      -7.239 -17.260 -44.598  1.00  0.00    -0.341 OA
ENDROOT
BRANCH   1   7
ATOM      7  O   UNL     1      -9.357 -18.165 -43.983  1.00  0.00    -0.341 OA
BRANCH   7   8
ATOM      8  C   UNL     1      -8.640 -19.394 -44.029  1.00  0.00    +0.184 C 
ATOM      9  C   UNL     1      -8.500 -21.728 -43.863  1.00  0.00    +0.195 C 
ATOM     10  C   UNL     1      -9.508 -20.631 -44.209  1.00  0.00    +0.179 C 
ATOM     11  O   UNL     1      -7.622 -21.157 -42.858  1.00  0.00    -0.370 OA
ATOM     12  O   UNL     1     -10.634 -20.588 -43.314  1.00  0.00    -0.342 OA
ATOM     13  C   UNL     1      -8.035 -19.777 -42.684  1.00  0.00    +0.184 C 
ATOM     14  C   UNL     1     -10.333 -20.535 -41.924  1.00  0.00    +0.279 C 
ATOM     15  C   UNL     1      -9.095 -19.677 -41.578  1.00  0.00    +0.202 C 
BRANCH  14  16
ATOM     16  O   UNL     1     -10.165 -21.866 -41.441  1.00  0.00    -0.366 OA
ATOM     17  H   UNL     1      -9.200 -21.992 -41.402  1.00  0.00    +0.213 HD
ENDBRANCH  14  16
BRANCH  15  18
ATOM     18  O   UNL     1      -8.538 -20.071 -40.317  1.00  0.00    -0.385 OA
ATOM     19  H   UNL     1      -9.212 -19.788 -39.662  1.00  0.00    +0.211 HD
ENDBRANCH  15  18
ENDBRANCH   7   8
ENDBRANCH   1   7
BRANCH   2  20
ATOM     20  O   UNL     1     -10.200 -15.277 -43.608  1.00  0.00    -0.385 OA
ATOM     21  H   UNL     1      -9.756 -15.354 -42.741  1.00  0.00    +0.211 HD
ENDBRANCH   2  20
BRANCH   3  22
ATOM     22  O   UNL     1      -8.992 -13.598 -45.463  1.00  0.00    -0.387 OA
ATOM     23  H   UNL     1      -8.434 -12.847 -45.170  1.00  0.00    +0.211 HD
ENDBRANCH   3  22
BRANCH   5  24
ATOM     24  C   UNL     1      -7.781 -17.766 -46.953  1.00  0.00    +0.220 C 
BRANCH  24  25
ATOM     25  O   UNL     1      -9.107 -17.292 -47.178  1.00  0.00    -0.245 OA
BRANCH  25  26
ATOM     26  S   UNL     1     -10.241 -18.379 -47.587  1.00  0.00    +0.397 S 
ATOM     27  O   UNL     1      -9.682 -19.711 -47.551  1.00  0.00    -0.169 OA
ATOM     28  O   UNL     1     -10.958 -17.875 -48.736  1.00  0.00    -0.169 OA
BRANCH  26  29
ATOM     29  O   UNL     1     -11.282 -18.252 -46.366  1.00  0.00    -0.264 OA
ATOM     30  H   UNL     1     -12.177 -18.209 -46.758  1.00  0.00    +0.236 HD
ENDBRANCH  26  29
ENDBRANCH  25  26
ENDBRANCH  24  25
ENDBRANCH   5  24
BRANCH   4  31
ATOM     31  O   UNL     1      -8.074 -15.072 -47.387  1.00  0.00    -0.387 OA
ATOM     32  H   UNL     1      -7.936 -15.894 -47.908  1.00  0.00    +0.211 HD
ENDBRANCH   4  31
TORSDOF 11
ENDMDL
MODEL 4
REMARK VINA RESULT:    -5.722      3.265      6.169
REMARK INTER + INTRA:          -9.459
REMARK INTER:                  -8.176
REMARK INTRA:                  -1.283
REMARK UNBOUND:                -1.061
REMARK SMILES O=S(=O)(O)OC[C@@H]1O[C@H](O[C@H]2[C@@H]3OC[C@H]2O[C@@H](O)[C@H]3O)[C@@H](O)[C@H](O)[C@@H]1O
REMARK SMILES IDX 9 1 21 2 23 3 25 4 7 5 8 6 10 7 11 8 14 9 15 10 13 11 16 12
REMARK SMILES IDX 12 13 17 14 19 15 18 16 20 18 22 20 24 22 6 24 5 25 2 26
REMARK SMILES IDX 1 27 3 28 4 29 26 31
REMARK H PARENT 18 17 20 19 22 21 24 23 4 30 26 32
ROOT
ATOM      1  C   UNL     1     -11.283   3.045   6.927  1.00  0.00    +0.282 C 
ATOM      2  C   UNL     1     -11.709   3.725   8.242  1.00  0.00    +0.202 C 
ATOM      3  C   UNL     1     -10.983   3.040   9.387  1.00  0.00    +0.179 C 
ATOM      4  C   UNL     1      -9.476   3.277   9.245  1.00  0.00    +0.177 C 
ATOM      5  C   UNL     1      -9.001   3.268   7.773  1.00  0.00    +0.180 C 
ATOM      6  O   UNL     1      -9.929   2.595   6.901  1.00  0.00    -0.341 OA
ENDROOT
BRANCH   1   7
ATOM      7  O   UNL     1     -11.600   3.934   5.852  1.00  0.00    -0.341 OA
BRANCH   7   8
ATOM      8  C   UNL     1     -12.712   3.495   5.078  1.00  0.00    +0.184 C 
ATOM      9  C   UNL     1     -13.696   2.156   3.425  1.00  0.00    +0.195 C 
ATOM     10  C   UNL     1     -12.527   2.141   4.411  1.00  0.00    +0.179 C 
ATOM     11  O   UNL     1     -13.865   3.543   3.032  1.00  0.00    -0.370 OA
ATOM     12  O   UNL     1     -11.241   2.068   3.769  1.00  0.00    -0.342 OA
ATOM     13  C   UNL     1     -12.907   4.312   3.806  1.00  0.00    +0.184 C 
ATOM     14  C   UNL     1     -10.990   3.030   2.750  1.00  0.00    +0.279 C 
ATOM     15  C   UNL     1     -11.581   4.427   3.042  1.00  0.00    +0.202 C 
BRANCH  14  16
ATOM     16  O   UNL     1     -11.491   2.528   1.514  1.00  0.00    -0.366 OA
ATOM     17  H   UNL     1     -11.388   3.268   0.889  1.00  0.00    +0.213 HD
ENDBRANCH  14  16
BRANCH  15  18
ATOM     18  O   UNL     1     -11.769   5.166   1.827  1.00  0.00    -0.385 OA
ATOM     19  H   UNL     1     -11.453   4.554   1.128  1.00  0.00    +0.211 HD
ENDBRANCH  15  18
ENDBRANCH   7   8
ENDBRANCH   1   7
BRANCH   2  20
ATOM     20  O   UNL     1     -13.127   3.620   8.452  1.00  0.00    -0.385 OA
ATOM     21  H   UNL     1     -13.489   4.517   8.313  1.00  0.00    +0.211 HD
ENDBRANCH   2  20
BRANCH   3  22
ATOM     22  O   UNL     1     -11.428   3.565  10.649  1.00  0.00    -0.387 OA
ATOM     23  H   UNL     1     -11.836   2.801  11.108  1.00  0.00    +0.211 HD
ENDBRANCH   3  22
BRANCH   5  24
ATOM     24  C   UNL     1      -8.582   4.640   7.214  1.00  0.00    +0.220 C 
BRANCH  24  25
ATOM     25  O   UNL     1      -7.250   4.915   7.642  1.00  0.00    -0.245 OA
BRANCH  25  26
ATOM     26  S   UNL     1      -6.951   6.371   8.296  1.00  0.00    +0.397 S 
ATOM     27  O   UNL     1      -6.083   7.134   7.427  1.00  0.00    -0.169 OA
ATOM     28  O   UNL     1      -6.665   6.187   9.701  1.00  0.00    -0.169 OA
BRANCH  26  29
ATOM     29  O   UNL     1      -8.406   7.059   8.260  1.00  0.00    -0.264 OA
ATOM     30  H   UNL     1      -8.265   8.026   8.313  1.00  0.00    +0.236 HD
ENDBRANCH  26  29
ENDBRANCH  25  26
ENDBRANCH  24  25
ENDBRANCH   5  24
BRANCH   4  31
ATOM     31  O   UNL     1      -9.131   4.503   9.899  1.00  0.00    -0.387 OA
ATOM     32  H   UNL     1      -9.489   5.209   9.315  1.00  0.00    +0.211 HD
ENDBRANCH   4  31
TORSDOF 11
ENDMDL
MODEL 5
REMARK VINA RESULT:    -5.653      5.122      8.946
REMARK INTER + INTRA:          -9.357
REMARK INTER:                  -7.544
REMARK INTRA:                  -1.813
REMARK UNBOUND:                -1.061
REMARK SMILES O=S(=O)(O)OC[C@@H]1O[C@H](O[C@H]2[C@@H]3OC[C@H]2O[C@@H](O)[C@H]3O)[C@@H](O)[C@H](O)[C@@H]1O
REMARK SMILES IDX 9 1 21 2 23 3 25 4 7 5 8 6 10 7 11 8 14 9 15 10 13 11 16 12
REMARK SMILES IDX 12 13 17 14 19 15 18 16 20 18 22 20 24 22 6 24 5 25 2 26
REMARK SMILES IDX 1 27 3 28 4 29 26 31
REMARK H PARENT 18 17 20 19 22 21 24 23 4 30 26 32
ROOT
ATOM      1  C   UNL     1     -10.536   4.913   5.042  1.00  0.00    +0.282 C 
ATOM      2  C   UNL     1      -9.043   4.819   5.410  1.00  0.00    +0.202 C 
ATOM      3  C   UNL     1      -8.939   4.419   6.872  1.00  0.00    +0.179 C 
ATOM      4  C   UNL     1      -9.519   3.013   7.054  1.00  0.00    +0.177 C 
ATOM      5  C   UNL     1     -10.752   2.749   6.156  1.00  0.00    +0.180 C 
ATOM      6  O   UNL     1     -11.373   3.967   5.706  1.00  0.00    -0.341 OA
ENDROOT
BRANCH   1   7
ATOM      7  O   UNL     1     -10.641   4.853   3.617  1.00  0.00    -0.341 OA
BRANCH   7   8
ATOM      8  C   UNL     1     -10.965   6.109   3.030  1.00  0.00    +0.184 C 
ATOM      9  C   UNL     1     -12.002   7.438   1.401  1.00  0.00    +0.195 C 
ATOM     10  C   UNL     1     -12.162   6.082   2.092  1.00  0.00    +0.179 C 
ATOM     11  O   UNL     1     -10.573   7.679   1.328  1.00  0.00    -0.370 OA
ATOM     12  O   UNL     1     -12.066   4.968   1.187  1.00  0.00    -0.342 OA
ATOM     13  C   UNL     1      -9.931   6.571   2.011  1.00  0.00    +0.184 C 
ATOM     14  C   UNL     1     -10.921   4.938   0.342  1.00  0.00    +0.279 C 
ATOM     15  C   UNL     1      -9.626   5.442   1.017  1.00  0.00    +0.202 C 
BRANCH  14  16
ATOM     16  O   UNL     1     -11.198   5.699  -0.831  1.00  0.00    -0.366 OA
ATOM     17  H   UNL     1     -11.509   5.043  -1.480  1.00  0.00    +0.213 HD
ENDBRANCH  14  16
BRANCH  15  18
ATOM     18  O   UNL     1      -8.679   5.885   0.036  1.00  0.00    -0.385 OA
ATOM     19  H   UNL     1      -7.922   5.269   0.142  1.00  0.00    +0.211 HD
ENDBRANCH  15  18
ENDBRANCH   7   8
ENDBRANCH   1   7
BRANCH   2  20
ATOM     20  O   UNL     1      -8.374   6.077   5.216  1.00  0.00    -0.385 OA
ATOM     21  H   UNL     1      -8.344   6.505   6.094  1.00  0.00    +0.211 HD
ENDBRANCH   2  20
BRANCH   3  22
ATOM     22  O   UNL     1      -7.566   4.422   7.297  1.00  0.00    -0.387 OA
ATOM     23  H   UNL     1      -7.120   5.057   6.697  1.00  0.00    +0.211 HD
ENDBRANCH   3  22
BRANCH   5  24
ATOM     24  C   UNL     1     -10.515   1.763   4.997  1.00  0.00    +0.220 C 
BRANCH  24  25
ATOM     25  O   UNL     1     -11.769   1.199   4.620  1.00  0.00    -0.245 OA
BRANCH  25  26
ATOM     26  S   UNL     1     -12.366   1.589   3.161  1.00  0.00    +0.397 S 
ATOM     27  O   UNL     1     -13.443   0.690   2.813  1.00  0.00    -0.169 OA
ATOM     28  O   UNL     1     -11.257   1.844   2.270  1.00  0.00    -0.169 OA
BRANCH  26  29
ATOM     29  O   UNL     1     -13.009   3.038   3.440  1.00  0.00    -0.264 OA
ATOM     30  H   UNL     1     -13.688   2.920   4.135  1.00  0.00    +0.236 HD
ENDBRANCH  26  29
ENDBRANCH  25  26
ENDBRANCH  24  25
ENDBRANCH   5  24
BRANCH   4  31
ATOM     31  O   UNL     1      -8.488   2.047   6.825  1.00  0.00    -0.387 OA
ATOM     32  H   UNL     1      -7.843   2.502   6.238  1.00  0.00    +0.211 HD
ENDBRANCH   4  31
TORSDOF 11
ENDMDL
MODEL 6
REMARK VINA RESULT:    -5.639     57.408     59.145
REMARK INTER + INTRA:          -9.336
REMARK INTER:                  -7.599
REMARK INTRA:                  -1.737
REMARK UNBOUND:                -1.061
REMARK SMILES O=S(=O)(O)OC[C@@H]1O[C@H](O[C@H]2[C@@H]3OC[C@H]2O[C@@H](O)[C@H]3O)[C@@H](O)[C@H](O)[C@@H]1O
REMARK SMILES IDX 9 1 21 2 23 3 25 4 7 5 8 6 10 7 11 8 14 9 15 10 13 11 16 12
REMARK SMILES IDX 12 13 17 14 19 15 18 16 20 18 22 20 24 22 6 24 5 25 2 26
REMARK SMILES IDX 1 27 3 28 4 29 26 31
REMARK H PARENT 18 17 20 19 22 21 24 23 4 30 26 32
ROOT
ATOM      1  C   UNL     1      -9.134 -20.890 -44.052  1.00  0.00    +0.282 C 
ATOM      2  C   UNL     1      -9.727 -20.792 -42.633  1.00  0.00    +0.202 C 
ATOM      3  C   UNL     1      -9.693 -22.176 -42.009  1.00  0.00    +0.179 C 
ATOM      4  C   UNL     1      -8.238 -22.620 -41.840  1.00  0.00    +0.177 C 
ATOM      5  C   UNL     1      -7.328 -22.159 -43.004  1.00  0.00    +0.180 C 
ATOM      6  O   UNL     1      -8.078 -21.838 -44.191  1.00  0.00    -0.341 OA
ENDROOT
BRANCH   1   7
ATOM      7  O   UNL     1      -8.763 -19.571 -44.464  1.00  0.00    -0.341 OA
BRANCH   7   8
ATOM      8  C   UNL     1      -9.329 -19.200 -45.716  1.00  0.00    +0.184 C 
ATOM      9  C   UNL     1      -9.321 -17.997 -47.728  1.00  0.00    +0.195 C 
ATOM     10  C   UNL     1      -8.350 -18.574 -46.697  1.00  0.00    +0.179 C 
ATOM     11  O   UNL     1     -10.505 -17.610 -46.983  1.00  0.00    -0.370 OA
ATOM     12  O   UNL     1      -7.554 -17.571 -46.041  1.00  0.00    -0.342 OA
ATOM     13  C   UNL     1     -10.279 -18.012 -45.607  1.00  0.00    +0.184 C 
ATOM     14  C   UNL     1      -8.263 -16.479 -45.465  1.00  0.00    +0.279 C 
ATOM     15  C   UNL     1      -9.613 -16.872 -44.825  1.00  0.00    +0.202 C 
BRANCH  14  16
ATOM     16  O   UNL     1      -8.460 -15.483 -46.466  1.00  0.00    -0.366 OA
ATOM     17  H   UNL     1      -7.882 -14.747 -46.195  1.00  0.00    +0.213 HD
ENDBRANCH  14  16
BRANCH  15  18
ATOM     18  O   UNL     1     -10.491 -15.741 -44.751  1.00  0.00    -0.385 OA
ATOM     19  H   UNL     1     -10.719 -15.556 -45.687  1.00  0.00    +0.211 HD
ENDBRANCH  15  18
ENDBRANCH   7   8
ENDBRANCH   1   7
BRANCH   2  20
ATOM     20  O   UNL     1     -11.085 -20.320 -42.663  1.00  0.00    -0.385 OA
ATOM     21  H   UNL     1     -11.648 -21.106 -42.523  1.00  0.00    +0.211 HD
ENDBRANCH   2  20
BRANCH   3  22
ATOM     22  O   UNL     1     -10.336 -22.162 -40.723  1.00  0.00    -0.387 OA
ATOM     23  H   UNL     1      -9.762 -22.713 -40.150  1.00  0.00    +0.211 HD
ENDBRANCH   3  22
BRANCH   5  24
ATOM     24  C   UNL     1      -6.320 -21.052 -42.646  1.00  0.00    +0.220 C 
BRANCH  24  25
ATOM     25  O   UNL     1      -5.197 -21.163 -43.517  1.00  0.00    -0.245 OA
BRANCH  25  26
ATOM     26  S   UNL     1      -4.979 -19.994 -44.622  1.00  0.00    +0.397 S 
ATOM     27  O   UNL     1      -5.404 -20.459 -45.923  1.00  0.00    -0.169 OA
ATOM     28  O   UNL     1      -3.680 -19.400 -44.404  1.00  0.00    -0.169 OA
BRANCH  26  29
ATOM     29  O   UNL     1      -6.028 -18.874 -44.136  1.00  0.00    -0.264 OA
ATOM     30  H   UNL     1      -6.791 -19.349 -43.747  1.00  0.00    +0.236 HD
ENDBRANCH  26  29
ENDBRANCH  25  26
ENDBRANCH  24  25
ENDBRANCH   5  24
BRANCH   4  31
ATOM     31  O   UNL     1      -7.749 -22.154 -40.578  1.00  0.00    -0.387 OA
ATOM     32  H   UNL     1      -8.219 -21.304 -40.424  1.00  0.00    +0.211 HD
ENDBRANCH   4  31
TORSDOF 11
ENDMDL
MODEL 7
REMARK VINA RESULT:    -5.595     25.505     27.997
REMARK INTER + INTRA:          -9.272
REMARK INTER:                  -8.109
REMARK INTRA:                  -1.163
REMARK UNBOUND:                -1.061
REMARK SMILES O=S(=O)(O)OC[C@@H]1O[C@H](O[C@H]2[C@@H]3OC[C@H]2O[C@@H](O)[C@H]3O)[C@@H](O)[C@H](O)[C@@H]1O
REMARK SMILES IDX 9 1 21 2 23 3 25 4 7 5 8 6 10 7 11 8 14 9 15 10 13 11 16 12
REMARK SMILES IDX 12 13 17 14 19 15 18 16 20 18 22 20 24 22 6 24 5 25 2 26
REMARK SMILES IDX 1 27 3 28 4 29 26 31
REMARK H PARENT 18 17 20 19 22 21 24 23 4 30 26 32
ROOT
ATOM      1  C   UNL     1      -2.936   0.486 -15.831  1.00  0.00    +0.282 C 
ATOM      2  C   UNL     1      -2.448   1.825 -15.242  1.00  0.00    +0.202 C 
ATOM      3  C   UNL     1      -1.061   1.610 -14.661  1.00  0.00    +0.179 C 
ATOM      4  C   UNL     1      -0.089   1.254 -15.790  1.00  0.00    +0.177 C 
ATOM      5  C   UNL     1      -0.732   0.364 -16.880  1.00  0.00    +0.180 C 
ATOM      6  O   UNL     1      -1.909  -0.319 -16.407  1.00  0.00    -0.341 OA
ENDROOT
BRANCH   1   7
ATOM      7  O   UNL     1      -4.004   0.770 -16.738  1.00  0.00    -0.341 OA
BRANCH   7   8
ATOM      8  C   UNL     1      -4.724  -0.394 -17.131  1.00  0.00    +0.184 C 
ATOM      9  C   UNL     1      -6.652  -1.489 -17.890  1.00  0.00    +0.195 C 
ATOM     10  C   UNL     1      -5.970  -0.122 -17.959  1.00  0.00    +0.179 C 
ATOM     11  O   UNL     1      -6.313  -2.036 -16.589  1.00  0.00    -0.370 OA
ATOM     12  O   UNL     1      -6.748   0.933 -17.364  1.00  0.00    -0.342 OA
ATOM     13  C   UNL     1      -5.416  -1.084 -15.961  1.00  0.00    +0.184 C 
ATOM     14  C   UNL     1      -7.216   0.701 -16.039  1.00  0.00    +0.279 C 
ATOM     15  C   UNL     1      -6.217  -0.063 -15.142  1.00  0.00    +0.202 C 
BRANCH  14  16
ATOM     16  O   UNL     1      -8.456   0.001 -16.108  1.00  0.00    -0.366 OA
ATOM     17  H   UNL     1      -8.417  -0.638 -15.375  1.00  0.00    +0.213 HD
ENDBRANCH  14  16
BRANCH  15  18
ATOM     18  O   UNL     1      -6.897  -0.715 -14.062  1.00  0.00    -0.385 OA
ATOM     19  H   UNL     1      -7.828  -0.770 -14.367  1.00  0.00    +0.211 HD
ENDBRANCH  15  18
ENDBRANCH   7   8
ENDBRANCH   1   7
BRANCH   2  20
ATOM     20  O   UNL     1      -3.327   2.294 -14.206  1.00  0.00    -0.385 OA
ATOM     21  H   UNL     1      -3.524   3.227 -14.419  1.00  0.00    +0.211 HD
ENDBRANCH   2  20
BRANCH   3  22
ATOM     22  O   UNL     1      -0.604   2.803 -14.002  1.00  0.00    -0.387 OA
ATOM     23  H   UNL     1      -0.596   2.574 -13.048  1.00  0.00    +0.211 HD
ENDBRANCH   3  22
BRANCH   5  24
ATOM     24  C   UNL     1      -0.978   1.061 -18.230  1.00  0.00    +0.220 C 
BRANCH  24  25
ATOM     25  O   UNL     1       0.239   1.054 -18.972  1.00  0.00    -0.245 OA
BRANCH  25  26
ATOM     26  S   UNL     1       0.792   2.474 -19.533  1.00  0.00    +0.397 S 
ATOM     27  O   UNL     1      -0.137   3.531 -19.204  1.00  0.00    -0.169 OA
ATOM     28  O   UNL     1       1.284   2.271 -20.876  1.00  0.00    -0.169 OA
BRANCH  26  29
ATOM     29  O   UNL     1       2.115   2.692 -18.641  1.00  0.00    -0.264 OA
ATOM     30  H   UNL     1       2.153   1.952 -18.002  1.00  0.00    +0.236 HD
ENDBRANCH  26  29
ENDBRANCH  25  26
ENDBRANCH  24  25
ENDBRANCH   5  24
BRANCH   4  31
ATOM     31  O   UNL     1       0.445   2.460 -16.347  1.00  0.00    -0.387 OA
ATOM     32  H   UNL     1      -0.294   3.107 -16.300  1.00  0.00    +0.211 HD
ENDBRANCH   4  31
TORSDOF 11
ENDMDL
MODEL 8
REMARK VINA RESULT:    -5.594      3.275      7.112
REMARK INTER + INTRA:          -9.270
REMARK INTER:                  -8.492
REMARK INTRA:                  -0.779
REMARK UNBOUND:                -1.061
REMARK SMILES O=S(=O)(O)OC[C@@H]1O[C@H](O[C@H]2[C@@H]3OC[C@H]2O[C@@H](O)[C@H]3O)[C@@H](O)[C@H](O)[C@@H]1O
REMARK SMILES IDX 9 1 21 2 23 3 25 4 7 5 8 6 10 7 11 8 14 9 15 10 13 11 16 12
REMARK SMILES IDX 12 13 17 14 19 15 18 16 20 18 22 20 24 22 6 24 5 25 2 26
REMARK SMILES IDX 1 27 3 28 4 29 26 31
REMARK H PARENT 18 17 20 19 22 21 24 23 4 30 26 32
ROOT
ATOM      1  C   UNL     1     -10.291   2.831   5.533  1.00  0.00    +0.282 C 
ATOM      2  C   UNL     1     -11.424   3.645   6.187  1.00  0.00    +0.202 C 
ATOM      3  C   UNL     1     -11.558   3.195   7.632  1.00  0.00    +0.179 C 
ATOM      4  C   UNL     1     -10.277   3.548   8.393  1.00  0.00    +0.177 C 
ATOM      5  C   UNL     1      -9.001   3.378   7.535  1.00  0.00    +0.180 C 
ATOM      6  O   UNL     1      -9.211   2.508   6.406  1.00  0.00    -0.341 OA
ENDROOT
BRANCH   1   7
ATOM      7  O   UNL     1      -9.874   3.528   4.356  1.00  0.00    -0.341 OA
BRANCH   7   8
ATOM      8  C   UNL     1     -10.561   4.761   4.168  1.00  0.00    +0.184 C 
ATOM      9  C   UNL     1     -11.453   6.461   2.823  1.00  0.00    +0.195 C 
ATOM     10  C   UNL     1     -11.126   4.968   2.771  1.00  0.00    +0.179 C 
ATOM     11  O   UNL     1     -10.450   7.057   3.684  1.00  0.00    -0.370 OA
ATOM     12  O   UNL     1     -10.141   4.635   1.777  1.00  0.00    -0.342 OA
ATOM     13  C   UNL     1      -9.629   5.967   4.180  1.00  0.00    +0.184 C 
ATOM     14  C   UNL     1      -8.931   5.385   1.812  1.00  0.00    +0.279 C 
ATOM     15  C   UNL     1      -8.442   5.727   3.236  1.00  0.00    +0.202 C 
BRANCH  14  16
ATOM     16  O   UNL     1      -9.110   6.576   1.049  1.00  0.00    -0.366 OA
ATOM     17  H   UNL     1      -8.357   6.586   0.432  1.00  0.00    +0.213 HD
ENDBRANCH  14  16
BRANCH  15  18
ATOM     18  O   UNL     1      -7.582   6.874   3.218  1.00  0.00    -0.385 OA
ATOM     19  H   UNL     1      -7.540   7.124   2.270  1.00  0.00    +0.211 HD
ENDBRANCH  15  18
ENDBRANCH   7   8
ENDBRANCH   1   7
BRANCH   2  20
ATOM     20  O   UNL     1     -12.676   3.441   5.511  1.00  0.00    -0.385 OA
ATOM     21  H   UNL     1     -12.803   2.473   5.463  1.00  0.00    +0.211 HD
ENDBRANCH   2  20
BRANCH   3  22
ATOM     22  O   UNL     1     -12.675   3.848   8.259  1.00  0.00    -0.387 OA
ATOM     23  H   UNL     1     -13.200   4.214   7.516  1.00  0.00    +0.211 HD
ENDBRANCH   3  22
BRANCH   5  24
ATOM     24  C   UNL     1      -8.310   4.691   7.125  1.00  0.00    +0.220 C 
BRANCH  24  25
ATOM     25  O   UNL     1      -7.268   4.965   8.059  1.00  0.00    -0.245 OA
BRANCH  25  26
ATOM     26  S   UNL     1      -6.990   6.516   8.450  1.00  0.00    +0.397 S 
ATOM     27  O   UNL     1      -6.110   7.121   7.476  1.00  0.00    -0.169 OA
ATOM     28  O   UNL     1      -6.731   6.586   9.870  1.00  0.00    -0.169 OA
BRANCH  26  29
ATOM     29  O   UNL     1      -8.448   7.173   8.266  1.00  0.00    -0.264 OA
ATOM     30  H   UNL     1      -9.081   6.601   8.747  1.00  0.00    +0.236 HD
ENDBRANCH  26  29
ENDBRANCH  25  26
ENDBRANCH  24  25
ENDBRANCH   5  24
BRANCH   4  31
ATOM     31  O   UNL     1     -10.388   4.880   8.907  1.00  0.00    -0.387 OA
ATOM     32  H   UNL     1      -9.640   5.370   8.499  1.00  0.00    +0.211 HD
ENDBRANCH   4  31
TORSDOF 11
ENDMDL
MODEL 9
REMARK VINA RESULT:    -5.575      4.423      6.651
REMARK INTER + INTRA:          -9.244
REMARK INTER:                  -8.006
REMARK INTRA:                  -1.238
REMARK UNBOUND:                -1.061
REMARK SMILES O=S(=O)(O)OC[C@@H]1O[C@H](O[C@H]2[C@@H]3OC[C@H]2O[C@@H](O)[C@H]3O)[C@@H](O)[C@H](O)[C@@H]1O
REMARK SMILES IDX 9 1 21 2 23 3 25 4 7 5 8 6 10 7 11 8 14 9 15 10 13 11 16 12
REMARK SMILES IDX 12 13 17 14 19 15 18 16 20 18 22 20 24 22 6 24 5 25 2 26
REMARK SMILES IDX 1 27 3 28 4 29 26 31
REMARK H PARENT 18 17 20 19 22 21 24 23 4 30 26 32
ROOT
ATOM      1  C   UNL     1     -10.282   6.097   5.226  1.00  0.00    +0.282 C 
ATOM      2  C   UNL     1      -9.182   5.891   4.168  1.00  0.00    +0.202 C 
ATOM      3  C   UNL     1      -9.852   5.695   2.818  1.00  0.00    +0.179 C 
ATOM      4  C   UNL     1     -10.591   6.979   2.430  1.00  0.00    +0.177 C 
ATOM      5  C   UNL     1     -11.244   7.688   3.641  1.00  0.00    +0.180 C 
ATOM      6  O   UNL     1     -11.432   6.801   4.760  1.00  0.00    -0.341 OA
ENDROOT
BRANCH   1   7
ATOM      7  O   UNL     1      -9.679   6.702   6.373  1.00  0.00    -0.341 OA
BRANCH   7   8
ATOM      8  C   UNL     1      -9.838   5.929   7.558  1.00  0.00    +0.184 C 
ATOM      9  C   UNL     1      -9.698   5.624   9.878  1.00  0.00    +0.195 C 
ATOM     10  C   UNL     1      -9.879   6.738   8.845  1.00  0.00    +0.179 C 
ATOM     11  O   UNL     1      -8.844   4.635   9.247  1.00  0.00    -0.370 OA
ATOM     12  O   UNL     1      -8.818   7.709   8.862  1.00  0.00    -0.342 OA
ATOM     13  C   UNL     1      -8.606   5.097   7.892  1.00  0.00    +0.184 C 
ATOM     14  C   UNL     1      -7.493   7.196   8.779  1.00  0.00    +0.279 C 
ATOM     15  C   UNL     1      -7.347   5.973   7.846  1.00  0.00    +0.202 C 
BRANCH  14  16
ATOM     16  O   UNL     1      -7.044   6.874  10.093  1.00  0.00    -0.366 OA
ATOM     17  H   UNL     1      -7.686   7.308  10.683  1.00  0.00    +0.213 HD
ENDBRANCH  14  16
BRANCH  15  18
ATOM     18  O   UNL     1      -6.190   5.201   8.194  1.00  0.00    -0.385 OA
ATOM     19  H   UNL     1      -6.445   4.757   9.031  1.00  0.00    +0.211 HD
ENDBRANCH  15  18
ENDBRANCH   7   8
ENDBRANCH   1   7
BRANCH   2  20
ATOM     20  O   UNL     1      -8.375   4.738   4.466  1.00  0.00    -0.385 OA
ATOM     21  H   UNL     1      -8.988   4.064   4.820  1.00  0.00    +0.211 HD
ENDBRANCH   2  20
BRANCH   3  22
ATOM     22  O   UNL     1      -8.872   5.390   1.811  1.00  0.00    -0.387 OA
ATOM     23  H   UNL     1      -8.128   6.002   1.993  1.00  0.00    +0.211 HD
ENDBRANCH   3  22
BRANCH   5  24
ATOM     24  C   UNL     1     -10.574   9.009   4.062  1.00  0.00    +0.220 C 
BRANCH  24  25
ATOM     25  O   UNL     1     -10.918  10.014   3.111  1.00  0.00    -0.245 OA
BRANCH  25  26
ATOM     26  S   UNL     1      -9.795  11.127   2.745  1.00  0.00    +0.397 S 
ATOM     27  O   UNL     1      -8.481  10.524   2.755  1.00  0.00    -0.169 OA
ATOM     28  O   UNL     1     -10.094  12.334   3.482  1.00  0.00    -0.169 OA
BRANCH  26  29
ATOM     29  O   UNL     1     -10.159  11.479   1.217  1.00  0.00    -0.264 OA
ATOM     30  H   UNL     1     -11.000  11.980   1.233  1.00  0.00    +0.236 HD
ENDBRANCH  26  29
ENDBRANCH  25  26
ENDBRANCH  24  25
ENDBRANCH   5  24
BRANCH   4  31
ATOM     31  O   UNL     1      -9.688   7.849   1.738  1.00  0.00    -0.387 OA
ATOM     32  H   UNL     1      -8.844   7.347   1.688  1.00  0.00    +0.211 HD
ENDBRANCH   4  31
TORSDOF 11
ENDMDL
