MODEL 1
REMARK VINA RESULT:    -8.799      0.000      0.000
REMARK INTER + INTRA:         -19.011
REMARK INTER:                 -16.771
REMARK INTRA:                  -2.240
REMARK UNBOUND:                -2.240
REMARK SMILES C[C@H](NC(=O)CCC(=O)O)C(=O)N[C@@H](C)C(=O)N1CCC[C@@H]1C(=O)N[C@H](Cc1ccccc1)C(=O)Nc1ccc([N+](=O)[O-])cc1
REMARK SMILES IDX 14 1 15 2 13 3 11 4 12 5 2 7 1 8 3 9 4 10 5 11 6 13 7 14
REMARK SMILES IDX 8 15 9 16 10 17 16 19 17 20 18 21 19 22 22 23 20 24 21 25
REMARK SMILES IDX 23 26 24 27 25 28 26 30 27 31 28 32 29 33 33 34 30 35 32 36
REMARK SMILES IDX 31 37 34 38 35 39 36 40 37 42 38 43 45 44 39 45 44 46 40 47
REMARK SMILES IDX 41 48 42 49 43 50
REMARK H PARENT 13 6 3 12 10 18 25 29 36 41
ROOT
ATOM      1  C   UNL     1     -10.694   6.840  -0.424  1.00  0.00    +0.168 C 
ATOM      2  C   UNL     1     -10.473   5.829  -1.544  1.00  0.00    +0.041 C 
ENDROOT
BRANCH   1   3
ATOM      3  N   UNL     1     -10.158   6.335   0.835  1.00  0.00    -0.343 N 
ATOM      4  C   UNL     1      -9.669   7.153   1.830  1.00  0.00    +0.242 C 
ATOM      5  O   UNL     1      -9.635   8.375   1.719  1.00  0.00    -0.273 OA
ATOM      6  H   UNL     1     -10.315   5.352   1.046  1.00  0.00    +0.164 HD
BRANCH   4   7
ATOM      7  C   UNL     1      -9.306   6.400   3.126  1.00  0.00    +0.168 C 
ATOM      8  C   UNL     1     -10.343   5.335   3.457  1.00  0.00    +0.041 C 
BRANCH   7   9
ATOM      9  N   UNL     1      -9.152   7.348   4.232  1.00  0.00    -0.345 N 
ATOM     10  C   UNL     1      -7.915   7.809   4.618  1.00  0.00    +0.221 C 
ATOM     11  O   UNL     1      -6.881   7.558   4.009  1.00  0.00    -0.275 OA
ATOM     12  H   UNL     1      -9.929   7.437   4.877  1.00  0.00    +0.164 HD
BRANCH  10  13
ATOM     13  C   UNL     1      -7.967   8.703   5.840  1.00  0.00    +0.111 C 
BRANCH  13  14
ATOM     14  C   UNL     1      -7.468  10.109   5.532  1.00  0.00    +0.132 C 
BRANCH  14  15
ATOM     15  C   UNL     1      -6.557  10.605   6.621  1.00  0.00    +0.303 C 
ATOM     16  O   UNL     1      -5.977  11.676   6.662  1.00  0.00    -0.252 OA
BRANCH  15  17
ATOM     17  O   UNL     1      -6.381   9.688   7.592  1.00  0.00    -0.481 OA
ATOM     18  H   UNL     1      -5.426   9.469   7.543  1.00  0.00    +0.296 HD
ENDBRANCH  15  17
ENDBRANCH  14  15
ENDBRANCH  13  14
ENDBRANCH  10  13
ENDBRANCH   7   9
ENDBRANCH   4   7
ENDBRANCH   1   3
BRANCH   1  19
ATOM     19  C   UNL     1     -12.201   7.084  -0.212  1.00  0.00    +0.245 C 
ATOM     20  O   UNL     1     -12.753   6.725   0.835  1.00  0.00    -0.272 OA
BRANCH  19  21
ATOM     21  N   UNL     1     -12.915   7.672  -1.230  1.00  0.00    -0.329 N 
ATOM     22  C   UNL     1     -13.677   7.017  -2.284  1.00  0.00    +0.120 C 
ATOM     23  C   UNL     1     -12.893   9.119  -1.409  1.00  0.00    +0.174 C 
ATOM     24  C   UNL     1     -14.067   8.136  -3.242  1.00  0.00    +0.024 C 
ATOM     25  C   UNL     1     -14.062   9.382  -2.359  1.00  0.00    +0.037 C 
BRANCH  23  26
ATOM     26  C   UNL     1     -11.567   9.593  -2.045  1.00  0.00    +0.243 C 
ATOM     27  O   UNL     1     -11.487  10.080  -3.171  1.00  0.00    -0.273 OA
ATOM     28  N   UNL     1     -10.470   9.474  -1.209  1.00  0.00    -0.342 N 
ATOM     29  H   UNL     1     -10.665   9.426  -0.215  1.00  0.00    +0.164 HD
BRANCH  28  30
ATOM     30  C   UNL     1      -9.208  10.131  -1.560  1.00  0.00    +0.176 C 
BRANCH  30  31
ATOM     31  C   UNL     1      -8.257   9.138  -2.245  1.00  0.00    +0.070 C 
BRANCH  31  32
ATOM     32  C   UNL     1      -7.808   9.591  -3.615  1.00  0.00    -0.045 A 
ATOM     33  C   UNL     1      -6.667  10.390  -3.763  1.00  0.00    +0.004 A 
ATOM     34  C   UNL     1      -8.552   9.247  -4.752  1.00  0.00    +0.004 A 
ATOM     35  C   UNL     1      -6.283  10.846  -5.025  1.00  0.00    +0.000 A 
ATOM     36  C   UNL     1      -8.165   9.704  -6.013  1.00  0.00    +0.000 A 
ATOM     37  C   UNL     1      -7.034  10.504  -6.148  1.00  0.00    +0.000 A 
ENDBRANCH  31  32
ENDBRANCH  30  31
BRANCH  30  38
ATOM     38  C   UNL     1      -8.594  10.656  -0.239  1.00  0.00    +0.247 C 
ATOM     39  O   UNL     1      -7.429  10.388   0.057  1.00  0.00    -0.272 OA
ATOM     40  N   UNL     1      -9.455  11.460   0.486  1.00  0.00    -0.324 N 
ATOM     41  H   UNL     1     -10.369  11.630   0.076  1.00  0.00    +0.170 HD
BRANCH  40  42
ATOM     42  C   UNL     1      -9.201  12.124   1.702  1.00  0.00    +0.041 A 
ATOM     43  C   UNL     1      -8.166  13.043   1.891  1.00  0.00    +0.033 A 
ATOM     44  C   UNL     1     -10.053  11.826   2.776  1.00  0.00    +0.033 A 
ATOM     45  C   UNL     1      -7.979  13.663   3.133  1.00  0.00    +0.088 A 
ATOM     46  C   UNL     1      -9.878  12.439   4.022  1.00  0.00    +0.088 A 
ATOM     47  C   UNL     1      -8.837  13.358   4.195  1.00  0.00    +0.269 A 
BRANCH  47  48
ATOM     48  N   UNL     1      -8.646  14.007   5.498  1.00  0.00    +0.062 N 
ATOM     49  O   UNL     1      -9.377  13.648   6.432  1.00  0.00    -0.258 OA
ATOM     50  O   UNL     1      -7.768  14.878   5.586  1.00  0.00    -0.258 OA
ENDBRANCH  47  48
ENDBRANCH  40  42
ENDBRANCH  30  38
ENDBRANCH  28  30
ENDBRANCH  23  26
ENDBRANCH  19  21
ENDBRANCH   1  19
TORSDOF 16
ENDMDL
MODEL 2
REMARK VINA RESULT:    -8.518      2.224      6.370
REMARK INTER + INTRA:         -18.476
REMARK INTER:                 -15.047
REMARK INTRA:                  -3.429
REMARK UNBOUND:                -2.240
REMARK SMILES C[C@H](NC(=O)CCC(=O)O)C(=O)N[C@@H](C)C(=O)N1CCC[C@@H]1C(=O)N[C@H](Cc1ccccc1)C(=O)Nc1ccc([N+](=O)[O-])cc1
REMARK SMILES IDX 14 1 15 2 13 3 11 4 12 5 2 7 1 8 3 9 4 10 5 11 6 13 7 14
REMARK SMILES IDX 8 15 9 16 10 17 16 19 17 20 18 21 19 22 22 23 20 24 21 25
REMARK SMILES IDX 23 26 24 27 25 28 26 30 27 31 28 32 29 33 33 34 30 35 32 36
REMARK SMILES IDX 31 37 34 38 35 39 36 40 37 42 38 43 45 44 39 45 44 46 40 47
REMARK SMILES IDX 41 48 42 49 43 50
REMARK H PARENT 13 6 3 12 10 18 25 29 36 41
ROOT
ATOM      1  C   UNL     1      -9.464   7.115   2.581  1.00  0.00    +0.168 C 
ATOM      2  C   UNL     1     -10.786   6.357   2.647  1.00  0.00    +0.041 C 
ENDROOT
BRANCH   1   3
ATOM      3  N   UNL     1      -9.209   7.811   3.837  1.00  0.00    -0.343 N 
ATOM      4  C   UNL     1      -7.980   7.825   4.457  1.00  0.00    +0.242 C 
ATOM      5  O   UNL     1      -7.006   7.232   4.001  1.00  0.00    -0.273 OA
ATOM      6  H   UNL     1      -9.929   8.450   4.169  1.00  0.00    +0.164 HD
BRANCH   4   7
ATOM      7  C   UNL     1      -7.917   8.756   5.685  1.00  0.00    +0.168 C 
ATOM      8  C   UNL     1      -8.070   7.973   6.982  1.00  0.00    +0.041 C 
BRANCH   7   9
ATOM      9  N   UNL     1      -8.939   9.801   5.577  1.00  0.00    -0.345 N 
ATOM     10  C   UNL     1      -8.619  11.084   5.196  1.00  0.00    +0.221 C 
ATOM     11  O   UNL     1      -7.502  11.416   4.818  1.00  0.00    -0.275 OA
ATOM     12  H   UNL     1      -9.820   9.637   6.050  1.00  0.00    +0.164 HD
BRANCH  10  13
ATOM     13  C   UNL     1      -9.801  12.030   5.241  1.00  0.00    +0.111 C 
BRANCH  13  14
ATOM     14  C   UNL     1     -10.302  12.372   3.844  1.00  0.00    +0.132 C 
BRANCH  14  15
ATOM     15  C   UNL     1     -11.227  11.305   3.330  1.00  0.00    +0.303 C 
ATOM     16  O   UNL     1     -11.295  10.148   3.708  1.00  0.00    -0.252 OA
BRANCH  15  17
ATOM     17  O   UNL     1     -11.994  11.743   2.313  1.00  0.00    -0.481 OA
ATOM     18  H   UNL     1     -11.440  12.419   1.870  1.00  0.00    +0.296 HD
ENDBRANCH  15  17
ENDBRANCH  14  15
ENDBRANCH  13  14
ENDBRANCH  10  13
ENDBRANCH   7   9
ENDBRANCH   4   7
ENDBRANCH   1   3
BRANCH   1  19
ATOM     19  C   UNL     1      -9.513   8.182   1.470  1.00  0.00    +0.245 C 
ATOM     20  O   UNL     1     -10.531   8.323   0.781  1.00  0.00    -0.272 OA
BRANCH  19  21
ATOM     21  N   UNL     1      -8.387   8.940   1.245  1.00  0.00    -0.329 N 
ATOM     22  C   UNL     1      -8.211  10.368   1.464  1.00  0.00    +0.120 C 
ATOM     23  C   UNL     1      -7.206   8.345   0.631  1.00  0.00    +0.174 C 
ATOM     24  C   UNL     1      -6.859  10.698   0.844  1.00  0.00    +0.024 C 
ATOM     25  C   UNL     1      -6.106   9.371   0.900  1.00  0.00    +0.037 C 
BRANCH  23  26
ATOM     26  C   UNL     1      -7.395   8.146  -0.890  1.00  0.00    +0.243 C 
ATOM     27  O   UNL     1      -6.595   7.542  -1.602  1.00  0.00    -0.273 OA
ATOM     28  N   UNL     1      -8.583   8.661  -1.380  1.00  0.00    -0.342 N 
ATOM     29  H   UNL     1      -9.327   8.796  -0.704  1.00  0.00    +0.164 HD
BRANCH  28  30
ATOM     30  C   UNL     1      -9.030   8.309  -2.730  1.00  0.00    +0.176 C 
BRANCH  30  31
ATOM     31  C   UNL     1      -9.327   9.577  -3.545  1.00  0.00    +0.070 C 
BRANCH  31  32
ATOM     32  C   UNL     1      -8.191   9.976  -4.459  1.00  0.00    -0.045 A 
ATOM     33  C   UNL     1      -7.000  10.491  -3.932  1.00  0.00    +0.004 A 
ATOM     34  C   UNL     1      -8.333   9.872  -5.850  1.00  0.00    +0.004 A 
ATOM     35  C   UNL     1      -5.972  10.904  -4.782  1.00  0.00    +0.000 A 
ATOM     36  C   UNL     1      -7.304  10.285  -6.697  1.00  0.00    +0.000 A 
ATOM     37  C   UNL     1      -6.126  10.803  -6.163  1.00  0.00    +0.000 A 
ENDBRANCH  31  32
ENDBRANCH  30  31
BRANCH  30  38
ATOM     38  C   UNL     1     -10.309   7.450  -2.569  1.00  0.00    +0.247 C 
ATOM     39  O   UNL     1     -10.248   6.222  -2.633  1.00  0.00    -0.272 OA
ATOM     40  N   UNL     1     -11.443   8.198  -2.304  1.00  0.00    -0.324 N 
ATOM     41  H   UNL     1     -11.315   9.202  -2.228  1.00  0.00    +0.170 HD
BRANCH  40  42
ATOM     42  C   UNL     1     -12.751   7.731  -2.069  1.00  0.00    +0.041 A 
ATOM     43  C   UNL     1     -13.347   7.674  -0.806  1.00  0.00    +0.033 A 
ATOM     44  C   UNL     1     -13.481   7.301  -3.187  1.00  0.00    +0.033 A 
ATOM     45  C   UNL     1     -14.655   7.197  -0.655  1.00  0.00    +0.088 A 
ATOM     46  C   UNL     1     -14.789   6.823  -3.050  1.00  0.00    +0.088 A 
ATOM     47  C   UNL     1     -15.372   6.773  -1.779  1.00  0.00    +0.269 A 
BRANCH  47  48
ATOM     48  N   UNL     1     -16.744   6.274  -1.625  1.00  0.00    +0.062 N 
ATOM     49  O   UNL     1     -17.503   6.367  -2.601  1.00  0.00    -0.258 OA
ATOM     50  O   UNL     1     -17.063   5.792  -0.529  1.00  0.00    -0.258 OA
ENDBRANCH  47  48
ENDBRANCH  40  42
ENDBRANCH  30  38
ENDBRANCH  28  30
ENDBRANCH  23  26
ENDBRANCH  19  21
ENDBRANCH   1  19
TORSDOF 16
ENDMDL
MODEL 3
REMARK VINA RESULT:    -8.437      2.914      6.052
REMARK INTER + INTRA:         -18.323
REMARK INTER:                 -15.059
REMARK INTRA:                  -3.264
REMARK UNBOUND:                -2.240
REMARK SMILES C[C@H](NC(=O)CCC(=O)O)C(=O)N[C@@H](C)C(=O)N1CCC[C@@H]1C(=O)N[C@H](Cc1ccccc1)C(=O)Nc1ccc([N+](=O)[O-])cc1
REMARK SMILES IDX 14 1 15 2 13 3 11 4 12 5 2 7 1 8 3 9 4 10 5 11 6 13 7 14
REMARK SMILES IDX 8 15 9 16 10 17 16 19 17 20 18 21 19 22 22 23 20 24 21 25
REMARK SMILES IDX 23 26 24 27 25 28 26 30 27 31 28 32 29 33 33 34 30 35 32 36
REMARK SMILES IDX 31 37 34 38 35 39 36 40 37 42 38 43 45 44 39 45 44 46 40 47
REMARK SMILES IDX 41 48 42 49 43 50
REMARK H PARENT 13 6 3 12 10 18 25 29 36 41
ROOT
ATOM      1  C   UNL     1     -10.743   8.073   6.764  1.00  0.00    +0.168 C 
ATOM      2  C   UNL     1     -10.704   7.075   7.916  1.00  0.00    +0.041 C 
ENDROOT
BRANCH   1   3
ATOM      3  N   UNL     1     -12.071   8.106   6.160  1.00  0.00    -0.343 N 
ATOM      4  C   UNL     1     -12.648   9.255   5.668  1.00  0.00    +0.242 C 
ATOM      5  O   UNL     1     -12.088  10.347   5.719  1.00  0.00    -0.273 OA
ATOM      6  H   UNL     1     -12.505   7.211   5.942  1.00  0.00    +0.164 HD
BRANCH   4   7
ATOM      7  C   UNL     1     -13.985   9.012   4.937  1.00  0.00    +0.168 C 
ATOM      8  C   UNL     1     -14.990   8.310   5.841  1.00  0.00    +0.041 C 
BRANCH   7   9
ATOM      9  N   UNL     1     -13.754   8.246   3.710  1.00  0.00    -0.345 N 
ATOM     10  C   UNL     1     -13.811   8.839   2.470  1.00  0.00    +0.221 C 
ATOM     11  O   UNL     1     -13.942  10.046   2.305  1.00  0.00    -0.275 OA
ATOM     12  H   UNL     1     -13.832   7.237   3.772  1.00  0.00    +0.164 HD
BRANCH  10  13
ATOM     13  C   UNL     1     -13.640   7.855   1.330  1.00  0.00    +0.111 C 
BRANCH  13  14
ATOM     14  C   UNL     1     -13.685   8.548  -0.025  1.00  0.00    +0.132 C 
BRANCH  14  15
ATOM     15  C   UNL     1     -12.299   8.871  -0.508  1.00  0.00    +0.303 C 
ATOM     16  O   UNL     1     -11.878   8.778  -1.649  1.00  0.00    -0.252 OA
BRANCH  15  17
ATOM     17  O   UNL     1     -11.486   9.249   0.497  1.00  0.00    -0.481 OA
ATOM     18  H   UNL     1     -11.183   8.403   0.890  1.00  0.00    +0.296 HD
ENDBRANCH  15  17
ENDBRANCH  14  15
ENDBRANCH  13  14
ENDBRANCH  10  13
ENDBRANCH   7   9
ENDBRANCH   4   7
ENDBRANCH   1   3
BRANCH   1  19
ATOM     19  C   UNL     1      -9.751   7.655   5.660  1.00  0.00    +0.245 C 
ATOM     20  O   UNL     1      -9.789   6.514   5.183  1.00  0.00    -0.272 OA
BRANCH  19  21
ATOM     21  N   UNL     1      -8.807   8.568   5.253  1.00  0.00    -0.329 N 
ATOM     22  C   UNL     1      -8.651   9.948   5.688  1.00  0.00    +0.120 C 
ATOM     23  C   UNL     1      -7.859   8.231   4.197  1.00  0.00    +0.174 C 
ATOM     24  C   UNL     1      -7.597  10.538   4.759  1.00  0.00    +0.024 C 
ATOM     25  C   UNL     1      -6.792   9.320   4.312  1.00  0.00    +0.037 C 
BRANCH  23  26
ATOM     26  C   UNL     1      -8.523   8.274   2.802  1.00  0.00    +0.243 C 
ATOM     27  O   UNL     1      -9.741   8.307   2.629  1.00  0.00    -0.273 OA
ATOM     28  N   UNL     1      -7.622   8.331   1.753  1.00  0.00    -0.342 N 
ATOM     29  H   UNL     1      -6.693   8.671   1.976  1.00  0.00    +0.164 HD
BRANCH  28  30
ATOM     30  C   UNL     1      -8.092   8.655   0.403  1.00  0.00    +0.176 C 
BRANCH  30  31
ATOM     31  C   UNL     1      -7.127   8.092  -0.651  1.00  0.00    +0.070 C 
BRANCH  31  32
ATOM     32  C   UNL     1      -7.481   8.502  -2.062  1.00  0.00    -0.045 A 
ATOM     33  C   UNL     1      -8.582   7.933  -2.715  1.00  0.00    +0.004 A 
ATOM     34  C   UNL     1      -6.687   9.431  -2.749  1.00  0.00    +0.004 A 
ATOM     35  C   UNL     1      -8.877   8.278  -4.034  1.00  0.00    +0.000 A 
ATOM     36  C   UNL     1      -6.985   9.775  -4.068  1.00  0.00    +0.000 A 
ATOM     37  C   UNL     1      -8.077   9.197  -4.710  1.00  0.00    +0.000 A 
ENDBRANCH  31  32
ENDBRANCH  30  31
BRANCH  30  38
ATOM     38  C   UNL     1      -8.163  10.199   0.312  1.00  0.00    +0.247 C 
ATOM     39  O   UNL     1      -9.168  10.753  -0.134  1.00  0.00    -0.272 OA
ATOM     40  N   UNL     1      -7.041  10.832   0.819  1.00  0.00    -0.324 N 
ATOM     41  H   UNL     1      -6.318  10.231   1.203  1.00  0.00    +0.170 HD
BRANCH  40  42
ATOM     42  C   UNL     1      -6.801  12.216   0.921  1.00  0.00    +0.041 A 
ATOM     43  C   UNL     1      -5.807  12.893   0.209  1.00  0.00    +0.033 A 
ATOM     44  C   UNL     1      -7.623  12.938   1.800  1.00  0.00    +0.033 A 
ATOM     45  C   UNL     1      -5.632  14.274   0.365  1.00  0.00    +0.088 A 
ATOM     46  C   UNL     1      -7.459  14.318   1.964  1.00  0.00    +0.088 A 
ATOM     47  C   UNL     1      -6.460  14.982   1.243  1.00  0.00    +0.269 A 
BRANCH  47  48
ATOM     48  N   UNL     1      -6.282  16.430   1.408  1.00  0.00    +0.062 N 
ATOM     49  O   UNL     1      -5.733  17.050   0.486  1.00  0.00    -0.258 OA
ATOM     50  O   UNL     1      -6.687  16.945   2.460  1.00  0.00    -0.258 OA
ENDBRANCH  47  48
ENDBRANCH  40  42
ENDBRANCH  30  38
ENDBRANCH  28  30
ENDBRANCH  23  26
ENDBRANCH  19  21
ENDBRANCH   1  19
TORSDOF 16
ENDMDL
MODEL 4
REMARK VINA RESULT:    -8.406      2.863      7.693
REMARK INTER + INTRA:         -18.263
REMARK INTER:                 -14.696
REMARK INTRA:                  -3.568
REMARK UNBOUND:                -2.240
REMARK SMILES C[C@H](NC(=O)CCC(=O)O)C(=O)N[C@@H](C)C(=O)N1CCC[C@@H]1C(=O)N[C@H](Cc1ccccc1)C(=O)Nc1ccc([N+](=O)[O-])cc1
REMARK SMILES IDX 14 1 15 2 13 3 11 4 12 5 2 7 1 8 3 9 4 10 5 11 6 13 7 14
REMARK SMILES IDX 8 15 9 16 10 17 16 19 17 20 18 21 19 22 22 23 20 24 21 25
REMARK SMILES IDX 23 26 24 27 25 28 26 30 27 31 28 32 29 33 33 34 30 35 32 36
REMARK SMILES IDX 31 37 34 38 35 39 36 40 37 42 38 43 45 44 39 45 44 46 40 47
REMARK SMILES IDX 41 48 42 49 43 50
REMARK H PARENT 13 6 3 12 10 18 25 29 36 41
ROOT
ATOM      1  C   UNL     1     -10.966  11.118   7.430  1.00  0.00    +0.168 C 
ATOM      2  C   UNL     1     -10.670  10.365   8.723  1.00  0.00    +0.041 C 
ENDROOT
BRANCH   1   3
ATOM      3  N   UNL     1     -11.439  10.201   6.399  1.00  0.00    -0.343 N 
ATOM      4  C   UNL     1     -12.766   9.871   6.232  1.00  0.00    +0.242 C 
ATOM      5  O   UNL     1     -13.650  10.316   6.958  1.00  0.00    -0.273 OA
ATOM      6  H   UNL     1     -10.776   9.937   5.672  1.00  0.00    +0.164 HD
BRANCH   4   7
ATOM      7  C   UNL     1     -13.036   9.011   4.981  1.00  0.00    +0.168 C 
ATOM      8  C   UNL     1     -14.386   8.312   5.071  1.00  0.00    +0.041 C 
BRANCH   7   9
ATOM      9  N   UNL     1     -11.952   8.042   4.793  1.00  0.00    -0.345 N 
ATOM     10  C   UNL     1     -11.734   7.433   3.579  1.00  0.00    +0.221 C 
ATOM     11  O   UNL     1     -12.340   7.731   2.556  1.00  0.00    -0.275 OA
ATOM     12  H   UNL     1     -11.555   7.625   5.627  1.00  0.00    +0.164 HD
BRANCH  10  13
ATOM     13  C   UNL     1     -10.630   6.396   3.623  1.00  0.00    +0.111 C 
BRANCH  13  14
ATOM     14  C   UNL     1      -9.251   7.038   3.535  1.00  0.00    +0.132 C 
BRANCH  14  15
ATOM     15  C   UNL     1      -8.283   6.356   4.462  1.00  0.00    +0.303 C 
ATOM     16  O   UNL     1      -8.533   5.474   5.265  1.00  0.00    -0.252 OA
BRANCH  15  17
ATOM     17  O   UNL     1      -7.042   6.869   4.366  1.00  0.00    -0.481 OA
ATOM     18  H   UNL     1      -6.625   6.354   3.644  1.00  0.00    +0.296 HD
ENDBRANCH  15  17
ENDBRANCH  14  15
ENDBRANCH  13  14
ENDBRANCH  10  13
ENDBRANCH   7   9
ENDBRANCH   4   7
ENDBRANCH   1   3
BRANCH   1  19
ATOM     19  C   UNL     1      -9.684  11.785   6.893  1.00  0.00    +0.245 C 
ATOM     20  O   UNL     1      -9.748  12.843   6.256  1.00  0.00    -0.272 OA
BRANCH  19  21
ATOM     21  N   UNL     1      -8.482  11.152   7.110  1.00  0.00    -0.329 N 
ATOM     22  C   UNL     1      -7.380  11.589   7.954  1.00  0.00    +0.120 C 
ATOM     23  C   UNL     1      -8.144   9.935   6.380  1.00  0.00    +0.174 C 
ATOM     24  C   UNL     1      -6.240  10.627   7.643  1.00  0.00    +0.024 C 
ATOM     25  C   UNL     1      -6.955   9.370   7.156  1.00  0.00    +0.037 C 
BRANCH  23  26
ATOM     26  C   UNL     1      -7.738  10.241   4.921  1.00  0.00    +0.243 C 
ATOM     27  O   UNL     1      -6.858   9.631   4.317  1.00  0.00    -0.273 OA
ATOM     28  N   UNL     1      -8.497  11.234   4.324  1.00  0.00    -0.342 N 
ATOM     29  H   UNL     1      -9.407  11.412   4.735  1.00  0.00    +0.164 HD
BRANCH  28  30
ATOM     30  C   UNL     1      -8.421  11.440   2.876  1.00  0.00    +0.176 C 
BRANCH  30  31
ATOM     31  C   UNL     1      -8.562  12.931   2.537  1.00  0.00    +0.070 C 
BRANCH  31  32
ATOM     32  C   UNL     1      -7.375  13.486   1.783  1.00  0.00    -0.045 A 
ATOM     33  C   UNL     1      -7.020  14.836   1.906  1.00  0.00    +0.004 A 
ATOM     34  C   UNL     1      -6.638  12.663   0.920  1.00  0.00    +0.004 A 
ATOM     35  C   UNL     1      -5.953  15.356   1.171  1.00  0.00    +0.000 A 
ATOM     36  C   UNL     1      -5.571  13.185   0.187  1.00  0.00    +0.000 A 
ATOM     37  C   UNL     1      -5.232  14.531   0.311  1.00  0.00    +0.000 A 
ENDBRANCH  31  32
ENDBRANCH  30  31
BRANCH  30  38
ATOM     38  C   UNL     1      -9.576  10.624   2.245  1.00  0.00    +0.247 C 
ATOM     39  O   UNL     1     -10.676  10.571   2.796  1.00  0.00    -0.272 OA
ATOM     40  N   UNL     1      -9.243  10.048   1.031  1.00  0.00    -0.324 N 
ATOM     41  H   UNL     1      -8.307  10.233   0.685  1.00  0.00    +0.170 HD
BRANCH  40  42
ATOM     42  C   UNL     1     -10.066   9.280   0.184  1.00  0.00    +0.041 A 
ATOM     43  C   UNL     1      -9.901   7.910  -0.037  1.00  0.00    +0.033 A 
ATOM     44  C   UNL     1     -11.109   9.955  -0.467  1.00  0.00    +0.033 A 
ATOM     45  C   UNL     1     -10.763   7.216  -0.894  1.00  0.00    +0.088 A 
ATOM     46  C   UNL     1     -11.978   9.273  -1.326  1.00  0.00    +0.088 A 
ATOM     47  C   UNL     1     -11.801   7.902  -1.536  1.00  0.00    +0.269 A 
BRANCH  47  48
ATOM     48  N   UNL     1     -12.709   7.177  -2.434  1.00  0.00    +0.062 N 
ATOM     49  O   UNL     1     -13.888   7.555  -2.487  1.00  0.00    -0.258 OA
ATOM     50  O   UNL     1     -12.243   6.230  -3.084  1.00  0.00    -0.258 OA
ENDBRANCH  47  48
ENDBRANCH  40  42
ENDBRANCH  30  38
ENDBRANCH  28  30
ENDBRANCH  23  26
ENDBRANCH  19  21
ENDBRANCH   1  19
TORSDOF 16
ENDMDL
MODEL 5
REMARK VINA RESULT:    -8.213      2.590      3.595
REMARK INTER + INTRA:         -17.895
REMARK INTER:                 -15.677
REMARK INTRA:                  -2.218
REMARK UNBOUND:                -2.240
REMARK SMILES C[C@H](NC(=O)CCC(=O)O)C(=O)N[C@@H](C)C(=O)N1CCC[C@@H]1C(=O)N[C@H](Cc1ccccc1)C(=O)Nc1ccc([N+](=O)[O-])cc1
REMARK SMILES IDX 14 1 15 2 13 3 11 4 12 5 2 7 1 8 3 9 4 10 5 11 6 13 7 14
REMARK SMILES IDX 8 15 9 16 10 17 16 19 17 20 18 21 19 22 22 23 20 24 21 25
REMARK SMILES IDX 23 26 24 27 25 28 26 30 27 31 28 32 29 33 33 34 30 35 32 36
REMARK SMILES IDX 31 37 34 38 35 39 36 40 37 42 38 43 45 44 39 45 44 46 40 47
REMARK SMILES IDX 41 48 42 49 43 50
REMARK H PARENT 13 6 3 12 10 18 25 29 36 41
ROOT
ATOM      1  C   UNL     1     -11.796   6.659   2.026  1.00  0.00    +0.168 C 
ATOM      2  C   UNL     1     -13.084   7.471   1.952  1.00  0.00    +0.041 C 
ENDROOT
BRANCH   1   3
ATOM      3  N   UNL     1     -11.084   6.940   3.268  1.00  0.00    -0.343 N 
ATOM      4  C   UNL     1     -10.364   5.990   3.957  1.00  0.00    +0.242 C 
ATOM      5  O   UNL     1     -10.283   4.824   3.580  1.00  0.00    -0.273 OA
ATOM      6  H   UNL     1     -10.980   7.918   3.533  1.00  0.00    +0.164 HD
BRANCH   4   7
ATOM      7  C   UNL     1      -9.572   6.561   5.151  1.00  0.00    +0.168 C 
ATOM      8  C   UNL     1      -8.548   5.558   5.666  1.00  0.00    +0.041 C 
BRANCH   7   9
ATOM      9  N   UNL     1     -10.492   6.969   6.216  1.00  0.00    -0.345 N 
ATOM     10  C   UNL     1     -10.980   8.253   6.293  1.00  0.00    +0.221 C 
ATOM     11  O   UNL     1     -10.779   9.103   5.433  1.00  0.00    -0.275 OA
ATOM     12  H   UNL     1     -10.538   6.379   7.039  1.00  0.00    +0.164 HD
BRANCH  10  13
ATOM     13  C   UNL     1     -11.836   8.492   7.520  1.00  0.00    +0.111 C 
BRANCH  13  14
ATOM     14  C   UNL     1     -13.318   8.546   7.171  1.00  0.00    +0.132 C 
BRANCH  14  15
ATOM     15  C   UNL     1     -13.693   9.900   6.635  1.00  0.00    +0.303 C 
ATOM     16  O   UNL     1     -13.914  10.910   7.281  1.00  0.00    -0.252 OA
BRANCH  15  17
ATOM     17  O   UNL     1     -13.824   9.898   5.295  1.00  0.00    -0.481 OA
ATOM     18  H   UNL     1     -14.391   9.119   5.112  1.00  0.00    +0.296 HD
ENDBRANCH  15  17
ENDBRANCH  14  15
ENDBRANCH  13  14
ENDBRANCH  10  13
ENDBRANCH   7   9
ENDBRANCH   4   7
ENDBRANCH   1   3
BRANCH   1  19
ATOM     19  C   UNL     1     -10.855   7.040   0.866  1.00  0.00    +0.245 C 
ATOM     20  O   UNL     1      -9.646   6.787   0.931  1.00  0.00    -0.272 OA
BRANCH  19  21
ATOM     21  N   UNL     1     -11.390   7.698  -0.217  1.00  0.00    -0.329 N 
ATOM     22  C   UNL     1     -11.742   7.145  -1.516  1.00  0.00    +0.120 C 
ATOM     23  C   UNL     1     -11.581   9.144  -0.183  1.00  0.00    +0.174 C 
ATOM     24  C   UNL     1     -12.077   8.354  -2.382  1.00  0.00    +0.024 C 
ATOM     25  C   UNL     1     -12.508   9.411  -1.369  1.00  0.00    +0.037 C 
BRANCH  23  26
ATOM     26  C   UNL     1     -10.244   9.898  -0.365  1.00  0.00    +0.243 C 
ATOM     27  O   UNL     1     -10.128  11.116  -0.245  1.00  0.00    -0.273 OA
ATOM     28  N   UNL     1      -9.164   9.071  -0.623  1.00  0.00    -0.342 N 
ATOM     29  H   UNL     1      -9.263   8.102  -0.341  1.00  0.00    +0.164 HD
BRANCH  28  30
ATOM     30  C   UNL     1      -7.802   9.603  -0.542  1.00  0.00    +0.176 C 
BRANCH  30  31
ATOM     31  C   UNL     1      -6.898   8.927  -1.584  1.00  0.00    +0.070 C 
BRANCH  31  32
ATOM     32  C   UNL     1      -7.300   9.230  -3.009  1.00  0.00    -0.045 A 
ATOM     33  C   UNL     1      -6.649  10.236  -3.734  1.00  0.00    +0.004 A 
ATOM     34  C   UNL     1      -8.358   8.532  -3.610  1.00  0.00    +0.004 A 
ATOM     35  C   UNL     1      -7.055  10.547  -5.033  1.00  0.00    +0.000 A 
ATOM     36  C   UNL     1      -8.761   8.844  -4.908  1.00  0.00    +0.000 A 
ATOM     37  C   UNL     1      -8.112   9.852  -5.618  1.00  0.00    +0.000 A 
ENDBRANCH  31  32
ENDBRANCH  30  31
BRANCH  30  38
ATOM     38  C   UNL     1      -7.293   9.317   0.892  1.00  0.00    +0.247 C 
ATOM     39  O   UNL     1      -6.297   8.615   1.073  1.00  0.00    -0.272 OA
ATOM     40  N   UNL     1      -8.026   9.961   1.874  1.00  0.00    -0.324 N 
ATOM     41  H   UNL     1      -8.788  10.551   1.555  1.00  0.00    +0.170 HD
BRANCH  40  42
ATOM     42  C   UNL     1      -7.809   9.945   3.265  1.00  0.00    +0.041 A 
ATOM     43  C   UNL     1      -7.208   8.887   3.952  1.00  0.00    +0.033 A 
ATOM     44  C   UNL     1      -8.231  11.072   3.985  1.00  0.00    +0.033 A 
ATOM     45  C   UNL     1      -7.026   8.947   5.339  1.00  0.00    +0.088 A 
ATOM     46  C   UNL     1      -8.054  11.146   5.371  1.00  0.00    +0.088 A 
ATOM     47  C   UNL     1      -7.450  10.079   6.044  1.00  0.00    +0.269 A 
BRANCH  47  48
ATOM     48  N   UNL     1      -7.259  10.147   7.498  1.00  0.00    +0.062 N 
ATOM     49  O   UNL     1      -6.494   9.322   8.017  1.00  0.00    -0.258 OA
ATOM     50  O   UNL     1      -7.876  11.023   8.121  1.00  0.00    -0.258 OA
ENDBRANCH  47  48
ENDBRANCH  40  42
ENDBRANCH  30  38
ENDBRANCH  28  30
ENDBRANCH  23  26
ENDBRANCH  19  21
ENDBRANCH   1  19
TORSDOF 16
ENDMDL
MODEL 6
REMARK VINA RESULT:    -8.172      2.743      6.814
REMARK INTER + INTRA:         -17.817
REMARK INTER:                 -15.919
REMARK INTRA:                  -1.898
REMARK UNBOUND:                -2.240
REMARK SMILES C[C@H](NC(=O)CCC(=O)O)C(=O)N[C@@H](C)C(=O)N1CCC[C@@H]1C(=O)N[C@H](Cc1ccccc1)C(=O)Nc1ccc([N+](=O)[O-])cc1
REMARK SMILES IDX 14 1 15 2 13 3 11 4 12 5 2 7 1 8 3 9 4 10 5 11 6 13 7 14
REMARK SMILES IDX 8 15 9 16 10 17 16 19 17 20 18 21 19 22 22 23 20 24 21 25
REMARK SMILES IDX 23 26 24 27 25 28 26 30 27 31 28 32 29 33 33 34 30 35 32 36
REMARK SMILES IDX 31 37 34 38 35 39 36 40 37 42 38 43 45 44 39 45 44 46 40 47
REMARK SMILES IDX 41 48 42 49 43 50
REMARK H PARENT 13 6 3 12 10 18 25 29 36 41
ROOT
ATOM      1  C   UNL     1     -12.318   8.273   5.913  1.00  0.00    +0.168 C 
ATOM      2  C   UNL     1     -12.831   8.381   7.345  1.00  0.00    +0.041 C 
ENDROOT
BRANCH   1   3
ATOM      3  N   UNL     1     -10.932   7.817   5.897  1.00  0.00    -0.343 N 
ATOM      4  C   UNL     1     -10.355   7.191   4.816  1.00  0.00    +0.242 C 
ATOM      5  O   UNL     1     -10.977   6.953   3.784  1.00  0.00    -0.273 OA
ATOM      6  H   UNL     1     -10.330   8.135   6.655  1.00  0.00    +0.164 HD
BRANCH   4   7
ATOM      7  C   UNL     1      -8.841   6.947   4.978  1.00  0.00    +0.168 C 
ATOM      8  C   UNL     1      -8.530   5.462   5.113  1.00  0.00    +0.041 C 
BRANCH   7   9
ATOM      9  N   UNL     1      -8.331   7.698   6.129  1.00  0.00    -0.345 N 
ATOM     10  C   UNL     1      -7.325   8.626   5.993  1.00  0.00    +0.221 C 
ATOM     11  O   UNL     1      -6.867   8.971   4.911  1.00  0.00    -0.275 OA
ATOM     12  H   UNL     1      -8.532   7.326   7.050  1.00  0.00    +0.164 HD
BRANCH  10  13
ATOM     13  C   UNL     1      -6.879   9.218   7.315  1.00  0.00    +0.111 C 
BRANCH  13  14
ATOM     14  C   UNL     1      -5.829  10.305   7.121  1.00  0.00    +0.132 C 
BRANCH  14  15
ATOM     15  C   UNL     1      -4.448   9.713   7.071  1.00  0.00    +0.303 C 
ATOM     16  O   UNL     1      -3.771   9.349   8.016  1.00  0.00    -0.252 OA
BRANCH  15  17
ATOM     17  O   UNL     1      -3.964   9.659   5.815  1.00  0.00    -0.481 OA
ATOM     18  H   UNL     1      -3.177   9.080   5.887  1.00  0.00    +0.296 HD
ENDBRANCH  15  17
ENDBRANCH  14  15
ENDBRANCH  13  14
ENDBRANCH  10  13
ENDBRANCH   7   9
ENDBRANCH   4   7
ENDBRANCH   1   3
BRANCH   1  19
ATOM     19  C   UNL     1     -12.351   9.653   5.226  1.00  0.00    +0.245 C 
ATOM     20  O   UNL     1     -12.996   9.818   4.183  1.00  0.00    -0.272 OA
BRANCH  19  21
ATOM     21  N   UNL     1     -11.618  10.675   5.782  1.00  0.00    -0.329 N 
ATOM     22  C   UNL     1     -12.101  11.791   6.582  1.00  0.00    +0.120 C 
ATOM     23  C   UNL     1     -10.188  10.787   5.520  1.00  0.00    +0.174 C 
ATOM     24  C   UNL     1     -10.900  12.714   6.738  1.00  0.00    +0.024 C 
ATOM     25  C   UNL     1      -9.705  11.777   6.580  1.00  0.00    +0.037 C 
BRANCH  23  26
ATOM     26  C   UNL     1      -9.911  11.339   4.103  1.00  0.00    +0.243 C 
ATOM     27  O   UNL     1     -10.421  12.368   3.662  1.00  0.00    -0.273 OA
ATOM     28  N   UNL     1      -8.987  10.601   3.384  1.00  0.00    -0.342 N 
ATOM     29  H   UNL     1      -8.357  10.019   3.925  1.00  0.00    +0.164 HD
BRANCH  28  30
ATOM     30  C   UNL     1      -8.418  11.147   2.149  1.00  0.00    +0.176 C 
BRANCH  30  31
ATOM     31  C   UNL     1      -8.506  12.680   2.148  1.00  0.00    +0.070 C 
BRANCH  31  32
ATOM     32  C   UNL     1      -7.311  13.345   1.506  1.00  0.00    -0.045 A 
ATOM     33  C   UNL     1      -6.445  12.614   0.682  1.00  0.00    +0.004 A 
ATOM     34  C   UNL     1      -7.033  14.696   1.759  1.00  0.00    +0.004 A 
ATOM     35  C   UNL     1      -5.316  13.220   0.130  1.00  0.00    +0.000 A 
ATOM     36  C   UNL     1      -5.903  15.299   1.206  1.00  0.00    +0.000 A 
ATOM     37  C   UNL     1      -5.044  14.561   0.394  1.00  0.00    +0.000 A 
ENDBRANCH  31  32
ENDBRANCH  30  31
BRANCH  30  38
ATOM     38  C   UNL     1      -9.236  10.550   0.977  1.00  0.00    +0.247 C 
ATOM     39  O   UNL     1     -10.387  10.931   0.762  1.00  0.00    -0.272 OA
ATOM     40  N   UNL     1      -8.525   9.635   0.220  1.00  0.00    -0.324 N 
ATOM     41  H   UNL     1      -7.562   9.471   0.498  1.00  0.00    +0.170 HD
BRANCH  40  42
ATOM     42  C   UNL     1      -8.955   8.943  -0.928  1.00  0.00    +0.041 A 
ATOM     43  C   UNL     1      -9.287   7.585  -0.945  1.00  0.00    +0.033 A 
ATOM     44  C   UNL     1      -9.048   9.682  -2.116  1.00  0.00    +0.033 A 
ATOM     45  C   UNL     1      -9.709   6.969  -2.129  1.00  0.00    +0.088 A 
ATOM     46  C   UNL     1      -9.469   9.078  -3.306  1.00  0.00    +0.088 A 
ATOM     47  C   UNL     1      -9.799   7.719  -3.307  1.00  0.00    +0.269 A 
BRANCH  47  48
ATOM     48  N   UNL     1     -10.243   7.077  -4.550  1.00  0.00    +0.062 N 
ATOM     49  O   UNL     1     -10.798   5.972  -4.461  1.00  0.00    -0.258 OA
ATOM     50  O   UNL     1     -10.034   7.675  -5.615  1.00  0.00    -0.258 OA
ENDBRANCH  47  48
ENDBRANCH  40  42
ENDBRANCH  30  38
ENDBRANCH  28  30
ENDBRANCH  23  26
ENDBRANCH  19  21
ENDBRANCH   1  19
TORSDOF 16
ENDMDL
MODEL 7
REMARK VINA RESULT:    -8.162      1.715      2.192
REMARK INTER + INTRA:         -17.799
REMARK INTER:                 -15.371
REMARK INTRA:                  -2.427
REMARK UNBOUND:                -2.240
REMARK SMILES C[C@H](NC(=O)CCC(=O)O)C(=O)N[C@@H](C)C(=O)N1CCC[C@@H]1C(=O)N[C@H](Cc1ccccc1)C(=O)Nc1ccc([N+](=O)[O-])cc1
REMARK SMILES IDX 14 1 15 2 13 3 11 4 12 5 2 7 1 8 3 9 4 10 5 11 6 13 7 14
REMARK SMILES IDX 8 15 9 16 10 17 16 19 17 20 18 21 19 22 22 23 20 24 21 25
REMARK SMILES IDX 23 26 24 27 25 28 26 30 27 31 28 32 29 33 33 34 30 35 32 36
REMARK SMILES IDX 31 37 34 38 35 39 36 40 37 42 38 43 45 44 39 45 44 46 40 47
REMARK SMILES IDX 41 48 42 49 43 50
REMARK H PARENT 13 6 3 12 10 18 25 29 36 41
ROOT
ATOM      1  C   UNL     1     -10.831   6.365  -1.605  1.00  0.00    +0.168 C 
ATOM      2  C   UNL     1     -10.017   5.147  -2.029  1.00  0.00    +0.041 C 
ENDROOT
BRANCH   1   3
ATOM      3  N   UNL     1     -10.896   6.457  -0.150  1.00  0.00    -0.343 N 
ATOM      4  C   UNL     1      -9.903   7.025   0.616  1.00  0.00    +0.242 C 
ATOM      5  O   UNL     1      -8.875   7.483   0.125  1.00  0.00    -0.273 OA
ATOM      6  H   UNL     1     -11.790   6.246   0.290  1.00  0.00    +0.164 HD
BRANCH   4   7
ATOM      7  C   UNL     1     -10.268   7.148   2.109  1.00  0.00    +0.168 C 
ATOM      8  C   UNL     1     -11.609   7.843   2.296  1.00  0.00    +0.041 C 
BRANCH   7   9
ATOM      9  N   UNL     1      -9.204   7.853   2.830  1.00  0.00    -0.345 N 
ATOM     10  C   UNL     1      -8.422   7.214   3.764  1.00  0.00    +0.221 C 
ATOM     11  O   UNL     1      -8.476   6.009   3.978  1.00  0.00    -0.275 OA
ATOM     12  H   UNL     1      -9.241   8.866   2.835  1.00  0.00    +0.164 HD
BRANCH  10  13
ATOM     13  C   UNL     1      -7.450   8.143   4.462  1.00  0.00    +0.111 C 
BRANCH  13  14
ATOM     14  C   UNL     1      -7.373   7.859   5.957  1.00  0.00    +0.132 C 
BRANCH  14  15
ATOM     15  C   UNL     1      -6.242   8.622   6.589  1.00  0.00    +0.303 C 
ATOM     16  O   UNL     1      -5.064   8.309   6.604  1.00  0.00    -0.252 OA
BRANCH  15  17
ATOM     17  O   UNL     1      -6.669   9.728   7.227  1.00  0.00    -0.481 OA
ATOM     18  H   UNL     1      -7.474   9.434   7.702  1.00  0.00    +0.296 HD
ENDBRANCH  15  17
ENDBRANCH  14  15
ENDBRANCH  13  14
ENDBRANCH  10  13
ENDBRANCH   7   9
ENDBRANCH   4   7
ENDBRANCH   1   3
BRANCH   1  19
ATOM     19  C   UNL     1     -12.280   6.246  -2.118  1.00  0.00    +0.245 C 
ATOM     20  O   UNL     1     -13.198   5.953  -1.342  1.00  0.00    -0.272 OA
BRANCH  19  21
ATOM     21  N   UNL     1     -12.513   6.436  -3.460  1.00  0.00    -0.329 N 
ATOM     22  C   UNL     1     -12.121   5.577  -4.567  1.00  0.00    +0.120 C 
ATOM     23  C   UNL     1     -13.145   7.662  -3.935  1.00  0.00    +0.174 C 
ATOM     24  C   UNL     1     -12.441   6.379  -5.822  1.00  0.00    +0.024 C 
ATOM     25  C   UNL     1     -13.551   7.324  -5.369  1.00  0.00    +0.037 C 
BRANCH  23  26
ATOM     26  C   UNL     1     -12.159   8.852  -3.922  1.00  0.00    +0.243 C 
ATOM     27  O   UNL     1     -12.402   9.943  -4.435  1.00  0.00    -0.273 OA
ATOM     28  N   UNL     1     -10.989   8.602  -3.226  1.00  0.00    -0.342 N 
ATOM     29  H   UNL     1     -11.023   7.855  -2.541  1.00  0.00    +0.164 HD
BRANCH  28  30
ATOM     30  C   UNL     1     -10.089   9.709  -2.889  1.00  0.00    +0.176 C 
BRANCH  30  31
ATOM     31  C   UNL     1      -8.624   9.285  -3.071  1.00  0.00    +0.070 C 
BRANCH  31  32
ATOM     32  C   UNL     1      -7.997   9.831  -4.332  1.00  0.00    -0.045 A 
ATOM     33  C   UNL     1      -6.708  10.380  -4.308  1.00  0.00    +0.004 A 
ATOM     34  C   UNL     1      -8.715   9.830  -5.537  1.00  0.00    +0.004 A 
ATOM     35  C   UNL     1      -6.151  10.927  -5.465  1.00  0.00    +0.000 A 
ATOM     36  C   UNL     1      -8.156  10.378  -6.692  1.00  0.00    +0.000 A 
ATOM     37  C   UNL     1      -6.876  10.928  -6.655  1.00  0.00    +0.000 A 
ENDBRANCH  31  32
ENDBRANCH  30  31
BRANCH  30  38
ATOM     38  C   UNL     1     -10.372  10.083  -1.414  1.00  0.00    +0.247 C 
ATOM     39  O   UNL     1     -11.505   9.964  -0.945  1.00  0.00    -0.272 OA
ATOM     40  N   UNL     1      -9.243  10.489  -0.723  1.00  0.00    -0.324 N 
ATOM     41  H   UNL     1      -8.369  10.480  -1.241  1.00  0.00    +0.170 HD
BRANCH  40  42
ATOM     42  C   UNL     1      -9.144  10.859   0.632  1.00  0.00    +0.041 A 
ATOM     43  C   UNL     1     -10.226  11.283   1.408  1.00  0.00    +0.033 A 
ATOM     44  C   UNL     1      -7.871  10.790   1.216  1.00  0.00    +0.033 A 
ATOM     45  C   UNL     1     -10.047  11.634   2.752  1.00  0.00    +0.088 A 
ATOM     46  C   UNL     1      -7.679  11.137   2.559  1.00  0.00    +0.088 A 
ATOM     47  C   UNL     1      -8.771  11.559   3.323  1.00  0.00    +0.269 A 
BRANCH  47  48
ATOM     48  N   UNL     1      -8.579  11.923   4.732  1.00  0.00    +0.062 N 
ATOM     49  O   UNL     1      -9.562  12.350   5.355  1.00  0.00    -0.258 OA
ATOM     50  O   UNL     1      -7.446  11.785   5.214  1.00  0.00    -0.258 OA
ENDBRANCH  47  48
ENDBRANCH  40  42
ENDBRANCH  30  38
ENDBRANCH  28  30
ENDBRANCH  23  26
ENDBRANCH  19  21
ENDBRANCH   1  19
TORSDOF 16
ENDMDL
MODEL 8
REMARK VINA RESULT:    -8.142      4.974      9.324
REMARK INTER + INTRA:         -17.760
REMARK INTER:                 -14.432
REMARK INTRA:                  -3.328
REMARK UNBOUND:                -2.240
REMARK SMILES C[C@H](NC(=O)CCC(=O)O)C(=O)N[C@@H](C)C(=O)N1CCC[C@@H]1C(=O)N[C@H](Cc1ccccc1)C(=O)Nc1ccc([N+](=O)[O-])cc1
REMARK SMILES IDX 14 1 15 2 13 3 11 4 12 5 2 7 1 8 3 9 4 10 5 11 6 13 7 14
REMARK SMILES IDX 8 15 9 16 10 17 16 19 17 20 18 21 19 22 22 23 20 24 21 25
REMARK SMILES IDX 23 26 24 27 25 28 26 30 27 31 28 32 29 33 33 34 30 35 32 36
REMARK SMILES IDX 31 37 34 38 35 39 36 40 37 42 38 43 45 44 39 45 44 46 40 47
REMARK SMILES IDX 41 48 42 49 43 50
REMARK H PARENT 13 6 3 12 10 18 25 29 36 41
ROOT
ATOM      1  C   UNL     1     -13.755   7.944  -2.559  1.00  0.00    +0.168 C 
ATOM      2  C   UNL     1     -14.511   9.140  -1.990  1.00  0.00    +0.041 C 
ENDROOT
BRANCH   1   3
ATOM      3  N   UNL     1     -12.318   8.107  -2.366  1.00  0.00    -0.343 N 
ATOM      4  C   UNL     1     -11.560   7.263  -1.585  1.00  0.00    +0.242 C 
ATOM      5  O   UNL     1     -12.048   6.315  -0.977  1.00  0.00    -0.273 OA
ATOM      6  H   UNL     1     -11.839   8.769  -2.974  1.00  0.00    +0.164 HD
BRANCH   4   7
ATOM      7  C   UNL     1     -10.045   7.544  -1.662  1.00  0.00    +0.168 C 
ATOM      8  C   UNL     1      -9.250   6.252  -1.796  1.00  0.00    +0.041 C 
BRANCH   7   9
ATOM      9  N   UNL     1      -9.616   8.308  -0.488  1.00  0.00    -0.345 N 
ATOM     10  C   UNL     1      -9.758   9.676  -0.429  1.00  0.00    +0.221 C 
ATOM     11  O   UNL     1     -10.345  10.330  -1.282  1.00  0.00    -0.275 OA
ATOM     12  H   UNL     1      -8.967   7.857   0.146  1.00  0.00    +0.164 HD
BRANCH  10  13
ATOM     13  C   UNL     1      -9.163  10.282   0.826  1.00  0.00    +0.111 C 
BRANCH  13  14
ATOM     14  C   UNL     1      -7.651  10.433   0.718  1.00  0.00    +0.132 C 
BRANCH  14  15
ATOM     15  C   UNL     1      -6.949   9.451   1.614  1.00  0.00    +0.303 C 
ATOM     16  O   UNL     1      -5.749   9.358   1.804  1.00  0.00    -0.252 OA
BRANCH  15  17
ATOM     17  O   UNL     1      -7.806   8.588   2.193  1.00  0.00    -0.481 OA
ATOM     18  H   UNL     1      -7.241   8.052   2.787  1.00  0.00    +0.296 HD
ENDBRANCH  15  17
ENDBRANCH  14  15
ENDBRANCH  13  14
ENDBRANCH  10  13
ENDBRANCH   7   9
ENDBRANCH   4   7
ENDBRANCH   1   3
BRANCH   1  19
ATOM     19  C   UNL     1     -14.000   7.829  -4.077  1.00  0.00    +0.245 C 
ATOM     20  O   UNL     1     -14.549   8.749  -4.694  1.00  0.00    -0.272 OA
BRANCH  19  21
ATOM     21  N   UNL     1     -13.627   6.666  -4.710  1.00  0.00    -0.329 N 
ATOM     22  C   UNL     1     -13.680   5.307  -4.190  1.00  0.00    +0.120 C 
ATOM     23  C   UNL     1     -13.012   6.707  -6.032  1.00  0.00    +0.174 C 
ATOM     24  C   UNL     1     -12.949   4.461  -5.225  1.00  0.00    +0.024 C 
ATOM     25  C   UNL     1     -13.103   5.261  -6.516  1.00  0.00    +0.037 C 
BRANCH  23  26
ATOM     26  C   UNL     1     -11.536   7.158  -5.957  1.00  0.00    +0.243 C 
ATOM     27  O   UNL     1     -10.760   6.802  -5.071  1.00  0.00    -0.273 OA
ATOM     28  N   UNL     1     -11.139   7.959  -7.014  1.00  0.00    -0.342 N 
ATOM     29  H   UNL     1     -11.696   7.897  -7.859  1.00  0.00    +0.164 HD
BRANCH  28  30
ATOM     30  C   UNL     1      -9.716   8.233  -7.230  1.00  0.00    +0.176 C 
BRANCH  30  31
ATOM     31  C   UNL     1      -9.428   9.734  -7.080  1.00  0.00    +0.070 C 
BRANCH  31  32
ATOM     32  C   UNL     1      -8.428  10.043  -5.989  1.00  0.00    -0.045 A 
ATOM     33  C   UNL     1      -7.212  10.667  -6.294  1.00  0.00    +0.004 A 
ATOM     34  C   UNL     1      -8.691   9.673  -4.663  1.00  0.00    +0.004 A 
ATOM     35  C   UNL     1      -6.270  10.907  -5.292  1.00  0.00    +0.000 A 
ATOM     36  C   UNL     1      -7.748   9.914  -3.663  1.00  0.00    +0.000 A 
ATOM     37  C   UNL     1      -6.538  10.529  -3.978  1.00  0.00    +0.000 A 
ENDBRANCH  31  32
ENDBRANCH  30  31
BRANCH  30  38
ATOM     38  C   UNL     1      -9.380   7.751  -8.663  1.00  0.00    +0.247 C 
ATOM     39  O   UNL     1     -10.047   6.864  -9.196  1.00  0.00    -0.272 OA
ATOM     40  N   UNL     1      -8.334   8.447  -9.245  1.00  0.00    -0.324 N 
ATOM     41  H   UNL     1      -7.922   9.191  -8.690  1.00  0.00    +0.170 HD
BRANCH  40  42
ATOM     42  C   UNL     1      -7.805   8.288 -10.540  1.00  0.00    +0.041 A 
ATOM     43  C   UNL     1      -8.529   8.513 -11.715  1.00  0.00    +0.033 A 
ATOM     44  C   UNL     1      -6.468   7.876 -10.632  1.00  0.00    +0.033 A 
ATOM     45  C   UNL     1      -7.930   8.334 -12.968  1.00  0.00    +0.088 A 
ATOM     46  C   UNL     1      -5.857   7.694 -11.878  1.00  0.00    +0.088 A 
ATOM     47  C   UNL     1      -6.594   7.925 -13.044  1.00  0.00    +0.269 A 
BRANCH  47  48
ATOM     48  N   UNL     1      -5.961   7.738 -14.356  1.00  0.00    +0.062 N 
ATOM     49  O   UNL     1      -5.678   8.753 -15.008  1.00  0.00    -0.258 OA
ATOM     50  O   UNL     1      -5.751   6.577 -14.735  1.00  0.00    -0.258 OA
ENDBRANCH  47  48
ENDBRANCH  40  42
ENDBRANCH  30  38
ENDBRANCH  28  30
ENDBRANCH  23  26
ENDBRANCH  19  21
ENDBRANCH   1  19
TORSDOF 16
ENDMDL
MODEL 9
REMARK VINA RESULT:    -8.100      2.448      6.327
REMARK INTER + INTRA:         -17.680
REMARK INTER:                 -15.785
REMARK INTRA:                  -1.895
REMARK UNBOUND:                -2.240
REMARK SMILES C[C@H](NC(=O)CCC(=O)O)C(=O)N[C@@H](C)C(=O)N1CCC[C@@H]1C(=O)N[C@H](Cc1ccccc1)C(=O)Nc1ccc([N+](=O)[O-])cc1
REMARK SMILES IDX 14 1 15 2 13 3 11 4 12 5 2 7 1 8 3 9 4 10 5 11 6 13 7 14
REMARK SMILES IDX 8 15 9 16 10 17 16 19 17 20 18 21 19 22 22 23 20 24 21 25
REMARK SMILES IDX 23 26 24 27 25 28 26 30 27 31 28 32 29 33 33 34 30 35 32 36
REMARK SMILES IDX 31 37 34 38 35 39 36 40 37 42 38 43 45 44 39 45 44 46 40 47
REMARK SMILES IDX 41 48 42 49 43 50
REMARK H PARENT 13 6 3 12 10 18 25 29 36 41
ROOT
ATOM      1  C   UNL     1      -9.376   6.607   3.139  1.00  0.00    +0.168 C 
ATOM      2  C   UNL     1     -10.399   5.477   3.188  1.00  0.00    +0.041 C 
ENDROOT
BRANCH   1   3
ATOM      3  N   UNL     1      -9.371   7.350   4.395  1.00  0.00    -0.343 N 
ATOM      4  C   UNL     1     -10.500   7.919   4.939  1.00  0.00    +0.242 C 
ATOM      5  O   UNL     1     -11.597   7.857   4.393  1.00  0.00    -0.273 OA
ATOM      6  H   UNL     1      -8.531   7.289   4.967  1.00  0.00    +0.164 HD
BRANCH   4   7
ATOM      7  C   UNL     1     -10.276   8.513   6.345  1.00  0.00    +0.168 C 
ATOM      8  C   UNL     1     -11.534   9.194   6.866  1.00  0.00    +0.041 C 
BRANCH   7   9
ATOM      9  N   UNL     1      -9.144   9.444   6.323  1.00  0.00    -0.345 N 
ATOM     10  C   UNL     1      -8.027   9.237   7.099  1.00  0.00    +0.221 C 
ATOM     11  O   UNL     1      -7.846   8.225   7.765  1.00  0.00    -0.275 OA
ATOM     12  H   UNL     1      -9.314  10.371   5.949  1.00  0.00    +0.164 HD
BRANCH  10  13
ATOM     13  C   UNL     1      -7.018  10.364   7.002  1.00  0.00    +0.111 C 
BRANCH  13  14
ATOM     14  C   UNL     1      -5.687   9.985   7.639  1.00  0.00    +0.132 C 
BRANCH  14  15
ATOM     15  C   UNL     1      -4.790   9.304   6.643  1.00  0.00    +0.303 C 
ATOM     16  O   UNL     1      -4.038   9.838   5.847  1.00  0.00    -0.252 OA
BRANCH  15  17
ATOM     17  O   UNL     1      -4.931   7.965   6.666  1.00  0.00    -0.481 OA
ATOM     18  H   UNL     1      -4.492   7.692   7.499  1.00  0.00    +0.296 HD
ENDBRANCH  15  17
ENDBRANCH  14  15
ENDBRANCH  13  14
ENDBRANCH  10  13
ENDBRANCH   7   9
ENDBRANCH   4   7
ENDBRANCH   1   3
BRANCH   1  19
ATOM     19  C   UNL     1      -9.734   7.605   2.020  1.00  0.00    +0.245 C 
ATOM     20  O   UNL     1     -10.726   7.417   1.307  1.00  0.00    -0.272 OA
BRANCH  19  21
ATOM     21  N   UNL     1      -8.902   8.682   1.817  1.00  0.00    -0.329 N 
ATOM     22  C   UNL     1      -9.183  10.088   2.064  1.00  0.00    +0.120 C 
ATOM     23  C   UNL     1      -7.593   8.499   1.202  1.00  0.00    +0.174 C 
ATOM     24  C   UNL     1      -8.001  10.838   1.460  1.00  0.00    +0.024 C 
ATOM     25  C   UNL     1      -6.870   9.813   1.498  1.00  0.00    +0.037 C 
BRANCH  23  26
ATOM     26  C   UNL     1      -7.708   8.281  -0.324  1.00  0.00    +0.243 C 
ATOM     27  O   UNL     1      -6.814   7.788  -1.011  1.00  0.00    -0.273 OA
ATOM     28  N   UNL     1      -8.938   8.638  -0.851  1.00  0.00    -0.342 N 
ATOM     29  H   UNL     1      -9.713   8.673  -0.198  1.00  0.00    +0.164 HD
BRANCH  28  30
ATOM     30  C   UNL     1      -9.294   8.234  -2.213  1.00  0.00    +0.176 C 
BRANCH  30  31
ATOM     31  C   UNL     1      -9.612   9.466  -3.073  1.00  0.00    +0.070 C 
BRANCH  31  32
ATOM     32  C   UNL     1      -8.479   9.860  -3.993  1.00  0.00    -0.045 A 
ATOM     33  C   UNL     1      -7.255  10.296  -3.470  1.00  0.00    +0.004 A 
ATOM     34  C   UNL     1      -8.654   9.829  -5.384  1.00  0.00    +0.004 A 
ATOM     35  C   UNL     1      -6.228  10.705  -4.322  1.00  0.00    +0.000 A 
ATOM     36  C   UNL     1      -7.626  10.237  -6.233  1.00  0.00    +0.000 A 
ATOM     37  C   UNL     1      -6.415  10.677  -5.703  1.00  0.00    +0.000 A 
ENDBRANCH  31  32
ENDBRANCH  30  31
BRANCH  30  38
ATOM     38  C   UNL     1     -10.533   7.312  -2.098  1.00  0.00    +0.247 C 
ATOM     39  O   UNL     1     -10.401   6.125  -1.796  1.00  0.00    -0.272 OA
ATOM     40  N   UNL     1     -11.731   7.972  -2.311  1.00  0.00    -0.324 N 
ATOM     41  H   UNL     1     -11.671   8.968  -2.497  1.00  0.00    +0.170 HD
BRANCH  40  42
ATOM     42  C   UNL     1     -13.033   7.441  -2.244  1.00  0.00    +0.041 A 
ATOM     43  C   UNL     1     -13.767   7.313  -1.062  1.00  0.00    +0.033 A 
ATOM     44  C   UNL     1     -13.609   7.022  -3.453  1.00  0.00    +0.033 A 
ATOM     45  C   UNL     1     -15.060   6.776  -1.079  1.00  0.00    +0.088 A 
ATOM     46  C   UNL     1     -14.901   6.484  -3.483  1.00  0.00    +0.088 A 
ATOM     47  C   UNL     1     -15.623   6.363  -2.291  1.00  0.00    +0.269 A 
BRANCH  47  48
ATOM     48  N   UNL     1     -16.979   5.801  -2.313  1.00  0.00    +0.062 N 
ATOM     49  O   UNL     1     -17.919   6.577  -2.538  1.00  0.00    -0.258 OA
ATOM     50  O   UNL     1     -17.104   4.586  -2.103  1.00  0.00    -0.258 OA
ENDBRANCH  47  48
ENDBRANCH  40  42
ENDBRANCH  30  38
ENDBRANCH  28  30
ENDBRANCH  23  26
ENDBRANCH  19  21
ENDBRANCH   1  19
TORSDOF 16
ENDMDL
