MODEL 1
REMARK VINA RESULT:    -6.309      0.000      0.000
REMARK INTER + INTRA:         -10.494
REMARK INTER:                  -9.260
REMARK INTRA:                  -1.234
REMARK UNBOUND:                -1.234
REMARK SMILES O=S(=O)(O)OC[C@@H]1O[C@H](O[C@H]2[C@@H]3OC[C@H]2O[C@@H](O)[C@H]3O)[C@@H](O)[C@H](O)[C@@H]1O
REMARK SMILES IDX 9 1 21 2 23 3 25 4 7 5 8 6 10 7 11 8 14 9 15 10 13 11 16 12
REMARK SMILES IDX 12 13 17 14 19 15 18 16 20 18 22 20 24 22 6 24 5 25 2 26
REMARK SMILES IDX 1 27 3 28 4 29 26 31
REMARK H PARENT 18 17 20 19 22 21 24 23 4 30 26 32
ROOT
ATOM      1  C   UNL     1       5.223  -2.655 -13.472  1.00  0.00    +0.282 C 
ATOM      2  C   UNL     1       4.990  -3.052 -12.001  1.00  0.00    +0.202 C 
ATOM      3  C   UNL     1       5.424  -1.891 -11.122  1.00  0.00    +0.179 C 
ATOM      4  C   UNL     1       4.520  -0.686 -11.394  1.00  0.00    +0.177 C 
ATOM      5  C   UNL     1       4.117  -0.558 -12.882  1.00  0.00    +0.180 C 
ATOM      6  O   UNL     1       5.011  -1.273 -13.756  1.00  0.00    -0.341 OA
ENDROOT
BRANCH   1   7
ATOM      7  O   UNL     1       4.436  -3.525 -14.290  1.00  0.00    -0.341 OA
BRANCH   7   8
ATOM      8  C   UNL     1       5.153  -4.035 -15.409  1.00  0.00    +0.184 C 
ATOM      9  C   UNL     1       5.338  -5.365 -17.330  1.00  0.00    +0.195 C 
ATOM     10  C   UNL     1       4.282  -4.626 -16.507  1.00  0.00    +0.179 C 
ATOM     11  O   UNL     1       6.337  -5.815 -16.380  1.00  0.00    -0.370 OA
ATOM     12  O   UNL     1       3.286  -5.498 -15.943  1.00  0.00    -0.342 OA
ATOM     13  C   UNL     1       5.938  -5.300 -15.084  1.00  0.00    +0.184 C 
ATOM     14  C   UNL     1       3.771  -6.613 -15.203  1.00  0.00    +0.279 C 
ATOM     15  C   UNL     1       5.035  -6.313 -14.366  1.00  0.00    +0.202 C 
BRANCH  14  16
ATOM     16  O   UNL     1       4.016  -7.689 -16.105  1.00  0.00    -0.366 OA
ATOM     17  H   UNL     1       4.574  -7.301 -16.802  1.00  0.00    +0.213 HD
ENDBRANCH  14  16
BRANCH  15  18
ATOM     18  O   UNL     1       5.761  -7.518 -14.090  1.00  0.00    -0.385 OA
ATOM     19  H   UNL     1       6.605  -7.202 -13.700  1.00  0.00    +0.211 HD
ENDBRANCH  15  18
ENDBRANCH   7   8
ENDBRANCH   1   7
BRANCH   2  20
ATOM     20  O   UNL     1       5.748  -4.222 -11.647  1.00  0.00    -0.385 OA
ATOM     21  H   UNL     1       5.131  -4.976 -11.720  1.00  0.00    +0.211 HD
ENDBRANCH   2  20
BRANCH   3  22
ATOM     22  O   UNL     1       5.330  -2.251  -9.734  1.00  0.00    -0.387 OA
ATOM     23  H   UNL     1       4.369  -2.352  -9.566  1.00  0.00    +0.211 HD
ENDBRANCH   3  22
BRANCH   5  24
ATOM     24  C   UNL     1       2.641  -0.874 -13.188  1.00  0.00    +0.220 C 
BRANCH  24  25
ATOM     25  O   UNL     1       1.830   0.138 -12.596  1.00  0.00    -0.245 OA
BRANCH  25  26
ATOM     26  S   UNL     1       0.317  -0.262 -12.162  1.00  0.00    +0.397 S 
ATOM     27  O   UNL     1      -0.514  -0.397 -13.337  1.00  0.00    -0.169 OA
ATOM     28  O   UNL     1      -0.066   0.562 -11.038  1.00  0.00    -0.169 OA
BRANCH  26  29
ATOM     29  O   UNL     1       0.526  -1.732 -11.540  1.00  0.00    -0.264 OA
ATOM     30  H   UNL     1       0.125  -1.723 -10.647  1.00  0.00    +0.236 HD
ENDBRANCH  26  29
ENDBRANCH  25  26
ENDBRANCH  24  25
ENDBRANCH   5  24
BRANCH   4  31
ATOM     31  O   UNL     1       3.370  -0.762 -10.544  1.00  0.00    -0.387 OA
ATOM     32  H   UNL     1       3.373  -1.682 -10.198  1.00  0.00    +0.211 HD
ENDBRANCH   4  31
TORSDOF 11
ENDMDL
MODEL 2
REMARK VINA RESULT:    -6.126      3.171      6.920
REMARK INTER + INTRA:         -10.225
REMARK INTER:                  -9.131
REMARK INTRA:                  -1.094
REMARK UNBOUND:                -1.234
REMARK SMILES O=S(=O)(O)OC[C@@H]1O[C@H](O[C@H]2[C@@H]3OC[C@H]2O[C@@H](O)[C@H]3O)[C@@H](O)[C@H](O)[C@@H]1O
REMARK SMILES IDX 9 1 21 2 23 3 25 4 7 5 8 6 10 7 11 8 14 9 15 10 13 11 16 12
REMARK SMILES IDX 12 13 17 14 19 15 18 16 20 18 22 20 24 22 6 24 5 25 2 26
REMARK SMILES IDX 1 27 3 28 4 29 26 31
REMARK H PARENT 18 17 20 19 22 21 24 23 4 30 26 32
ROOT
ATOM      1  C   UNL     1       5.803  -0.355 -11.923  1.00  0.00    +0.282 C 
ATOM      2  C   UNL     1       5.617  -1.363 -13.073  1.00  0.00    +0.202 C 
ATOM      3  C   UNL     1       5.422  -2.743 -12.467  1.00  0.00    +0.179 C 
ATOM      4  C   UNL     1       4.121  -2.762 -11.660  1.00  0.00    +0.177 C 
ATOM      5  C   UNL     1       3.853  -1.430 -10.918  1.00  0.00    +0.180 C 
ATOM      6  O   UNL     1       5.049  -0.647 -10.748  1.00  0.00    -0.341 OA
ENDROOT
BRANCH   1   7
ATOM      7  O   UNL     1       5.550   0.954 -12.443  1.00  0.00    -0.341 OA
BRANCH   7   8
ATOM      8  C   UNL     1       5.509   1.955 -11.431  1.00  0.00    +0.184 C 
ATOM      9  C   UNL     1       4.638   3.909 -10.473  1.00  0.00    +0.195 C 
ATOM     10  C   UNL     1       4.213   2.749 -11.375  1.00  0.00    +0.179 C 
ATOM     11  O   UNL     1       6.040   4.143 -10.764  1.00  0.00    -0.370 OA
ATOM     12  O   UNL     1       3.822   3.167 -12.695  1.00  0.00    -0.342 OA
ATOM     13  C   UNL     1       6.440   3.126 -11.719  1.00  0.00    +0.184 C 
ATOM     14  C   UNL     1       4.745   3.997 -13.392  1.00  0.00    +0.279 C 
ATOM     15  C   UNL     1       6.227   3.633 -13.152  1.00  0.00    +0.202 C 
BRANCH  14  16
ATOM     16  O   UNL     1       4.502   5.354 -13.031  1.00  0.00    -0.366 OA
ATOM     17  H   UNL     1       3.531   5.429 -12.999  1.00  0.00    +0.213 HD
ENDBRANCH  14  16
BRANCH  15  18
ATOM     18  O   UNL     1       7.077   4.757 -13.414  1.00  0.00    -0.385 OA
ATOM     19  H   UNL     1       7.881   4.358 -13.811  1.00  0.00    +0.211 HD
ENDBRANCH  15  18
ENDBRANCH   7   8
ENDBRANCH   1   7
BRANCH   2  20
ATOM     20  O   UNL     1       6.763  -1.386 -13.942  1.00  0.00    -0.385 OA
ATOM     21  H   UNL     1       6.424  -1.608 -14.831  1.00  0.00    +0.211 HD
ENDBRANCH   2  20
BRANCH   3  22
ATOM     22  O   UNL     1       5.353  -3.739 -13.501  1.00  0.00    -0.387 OA
ATOM     23  H   UNL     1       4.648  -4.355 -13.208  1.00  0.00    +0.211 HD
ENDBRANCH   3  22
BRANCH   5  24
ATOM     24  C   UNL     1       2.693  -0.590 -11.484  1.00  0.00    +0.220 C 
BRANCH  24  25
ATOM     25  O   UNL     1       1.464  -1.148 -11.026  1.00  0.00    -0.245 OA
BRANCH  25  26
ATOM     26  S   UNL     1       0.159  -0.184 -10.996  1.00  0.00    +0.397 S 
ATOM     27  O   UNL     1       0.446   1.014 -10.240  1.00  0.00    -0.169 OA
ATOM     28  O   UNL     1      -1.004  -1.001 -10.732  1.00  0.00    -0.169 OA
BRANCH  26  29
ATOM     29  O   UNL     1       0.020   0.237 -12.544  1.00  0.00    -0.264 OA
ATOM     30  H   UNL     1       0.923   0.431 -12.868  1.00  0.00    +0.236 HD
ENDBRANCH  26  29
ENDBRANCH  25  26
ENDBRANCH  24  25
ENDBRANCH   5  24
BRANCH   4  31
ATOM     31  O   UNL     1       3.036  -3.105 -12.529  1.00  0.00    -0.387 OA
ATOM     32  H   UNL     1       3.197  -4.044 -12.774  1.00  0.00    +0.211 HD
ENDBRANCH   4  31
TORSDOF 11
ENDMDL
MODEL 3
REMARK VINA RESULT:    -6.039      3.572      7.035
REMARK INTER + INTRA:         -10.098
REMARK INTER:                  -8.932
REMARK INTRA:                  -1.166
REMARK UNBOUND:                -1.234
REMARK SMILES O=S(=O)(O)OC[C@@H]1O[C@H](O[C@H]2[C@@H]3OC[C@H]2O[C@@H](O)[C@H]3O)[C@@H](O)[C@H](O)[C@@H]1O
REMARK SMILES IDX 9 1 21 2 23 3 25 4 7 5 8 6 10 7 11 8 14 9 15 10 13 11 16 12
REMARK SMILES IDX 12 13 17 14 19 15 18 16 20 18 22 20 24 22 6 24 5 25 2 26
REMARK SMILES IDX 1 27 3 28 4 29 26 31
REMARK H PARENT 18 17 20 19 22 21 24 23 4 30 26 32
ROOT
ATOM      1  C   UNL     1       5.170   0.193 -11.191  1.00  0.00    +0.282 C 
ATOM      2  C   UNL     1       5.683  -1.091 -11.870  1.00  0.00    +0.202 C 
ATOM      3  C   UNL     1       5.093  -2.284 -11.135  1.00  0.00    +0.179 C 
ATOM      4  C   UNL     1       3.572  -2.282 -11.307  1.00  0.00    +0.177 C 
ATOM      5  C   UNL     1       2.966  -0.858 -11.298  1.00  0.00    +0.180 C 
ATOM      6  O   UNL     1       3.840   0.106 -10.680  1.00  0.00    -0.341 OA
ENDROOT
BRANCH   1   7
ATOM      7  O   UNL     1       5.350   1.275 -12.109  1.00  0.00    -0.341 OA
BRANCH   7   8
ATOM      8  C   UNL     1       5.926   2.428 -11.503  1.00  0.00    +0.184 C 
ATOM      9  C   UNL     1       5.794   4.577 -10.576  1.00  0.00    +0.195 C 
ATOM     10  C   UNL     1       4.938   3.325 -10.773  1.00  0.00    +0.179 C 
ATOM     11  O   UNL     1       6.669   4.644 -11.731  1.00  0.00    -0.370 OA
ATOM     12  O   UNL     1       3.773   3.553 -11.586  1.00  0.00    -0.342 OA
ATOM     13  C   UNL     1       6.404   3.456 -12.521  1.00  0.00    +0.184 C 
ATOM     14  C   UNL     1       3.995   4.180 -12.845  1.00  0.00    +0.279 C 
ATOM     15  C   UNL     1       5.299   3.738 -13.547  1.00  0.00    +0.202 C 
BRANCH  14  16
ATOM     16  O   UNL     1       3.985   5.593 -12.661  1.00  0.00    -0.366 OA
ATOM     17  H   UNL     1       4.612   5.749 -11.933  1.00  0.00    +0.213 HD
ENDBRANCH  14  16
BRANCH  15  18
ATOM     18  O   UNL     1       5.733   4.731 -14.486  1.00  0.00    -0.385 OA
ATOM     19  H   UNL     1       5.005   4.770 -15.143  1.00  0.00    +0.211 HD
ENDBRANCH  15  18
ENDBRANCH   7   8
ENDBRANCH   1   7
BRANCH   2  20
ATOM     20  O   UNL     1       7.118  -1.172 -11.826  1.00  0.00    -0.385 OA
ATOM     21  H   UNL     1       7.349  -2.059 -12.164  1.00  0.00    +0.211 HD
ENDBRANCH   2  20
BRANCH   3  22
ATOM     22  O   UNL     1       5.627  -3.511 -11.661  1.00  0.00    -0.387 OA
ATOM     23  H   UNL     1       4.986  -3.788 -12.349  1.00  0.00    +0.211 HD
ENDBRANCH   3  22
BRANCH   5  24
ATOM     24  C   UNL     1       2.439  -0.364 -12.658  1.00  0.00    +0.220 C 
BRANCH  24  25
ATOM     25  O   UNL     1       1.038  -0.125 -12.540  1.00  0.00    -0.245 OA
BRANCH  25  26
ATOM     26  S   UNL     1       0.026  -1.280 -13.067  1.00  0.00    +0.397 S 
ATOM     27  O   UNL     1      -0.921  -0.718 -14.003  1.00  0.00    -0.169 OA
ATOM     28  O   UNL     1      -0.391  -2.071 -11.931  1.00  0.00    -0.169 OA
BRANCH  26  29
ATOM     29  O   UNL     1       1.018  -2.242 -13.893  1.00  0.00    -0.264 OA
ATOM     30  H   UNL     1       0.825  -2.102 -14.842  1.00  0.00    +0.236 HD
ENDBRANCH  26  29
ENDBRANCH  25  26
ENDBRANCH  24  25
ENDBRANCH   5  24
BRANCH   4  31
ATOM     31  O   UNL     1       3.234  -2.987 -12.506  1.00  0.00    -0.387 OA
ATOM     32  H   UNL     1       4.076  -3.400 -12.801  1.00  0.00    +0.211 HD
ENDBRANCH   4  31
TORSDOF 11
ENDMDL
MODEL 4
REMARK VINA RESULT:    -5.862     23.195     25.664
REMARK INTER + INTRA:          -9.838
REMARK INTER:                  -8.889
REMARK INTRA:                  -0.948
REMARK UNBOUND:                -1.234
REMARK SMILES O=S(=O)(O)OC[C@@H]1O[C@H](O[C@H]2[C@@H]3OC[C@H]2O[C@@H](O)[C@H]3O)[C@@H](O)[C@H](O)[C@@H]1O
REMARK SMILES IDX 9 1 21 2 23 3 25 4 7 5 8 6 10 7 11 8 14 9 15 10 13 11 16 12
REMARK SMILES IDX 12 13 17 14 19 15 18 16 20 18 22 20 24 22 6 24 5 25 2 26
REMARK SMILES IDX 1 27 3 28 4 29 26 31
REMARK H PARENT 18 17 20 19 22 21 24 23 4 30 26 32
ROOT
ATOM      1  C   UNL     1     -13.991  -9.422   2.823  1.00  0.00    +0.282 C 
ATOM      2  C   UNL     1     -14.143 -10.148   4.173  1.00  0.00    +0.202 C 
ATOM      3  C   UNL     1     -13.267 -11.388   4.146  1.00  0.00    +0.179 C 
ATOM      4  C   UNL     1     -11.798 -10.968   4.043  1.00  0.00    +0.177 C 
ATOM      5  C   UNL     1     -11.588  -9.725   3.146  1.00  0.00    +0.180 C 
ATOM      6  O   UNL     1     -12.690  -9.507   2.244  1.00  0.00    -0.341 OA
ENDROOT
BRANCH   1   7
ATOM      7  O   UNL     1     -14.443  -8.076   2.996  1.00  0.00    -0.341 OA
BRANCH   7   8
ATOM      8  C   UNL     1     -15.722  -7.840   2.417  1.00  0.00    +0.184 C 
ATOM      9  C   UNL     1     -17.305  -6.475   1.356  1.00  0.00    +0.195 C 
ATOM     10  C   UNL     1     -15.790  -6.631   1.496  1.00  0.00    +0.179 C 
ATOM     11  O   UNL     1     -17.866  -6.904   2.624  1.00  0.00    -0.370 OA
ATOM     12  O   UNL     1     -15.154  -5.496   2.110  1.00  0.00    -0.342 OA
ATOM     13  C   UNL     1     -16.754  -7.366   3.433  1.00  0.00    +0.184 C 
ATOM     14  C   UNL     1     -15.703  -5.060   3.349  1.00  0.00    +0.279 C 
ATOM     15  C   UNL     1     -16.186  -6.207   4.264  1.00  0.00    +0.202 C 
BRANCH  14  16
ATOM     16  O   UNL     1     -16.771  -4.154   3.083  1.00  0.00    -0.366 OA
ATOM     17  H   UNL     1     -16.465  -3.303   3.443  1.00  0.00    +0.213 HD
ENDBRANCH  14  16
BRANCH  15  18
ATOM     18  O   UNL     1     -17.167  -5.737   5.197  1.00  0.00    -0.385 OA
ATOM     19  H   UNL     1     -17.914  -5.447   4.630  1.00  0.00    +0.211 HD
ENDBRANCH  15  18
ENDBRANCH   7   8
ENDBRANCH   1   7
BRANCH   2  20
ATOM     20  O   UNL     1     -15.507 -10.538   4.410  1.00  0.00    -0.385 OA
ATOM     21  H   UNL     1     -15.659 -11.334   3.863  1.00  0.00    +0.211 HD
ENDBRANCH   2  20
BRANCH   3  22
ATOM     22  O   UNL     1     -13.455 -12.162   5.343  1.00  0.00    -0.387 OA
ATOM     23  H   UNL     1     -12.552 -12.284   5.707  1.00  0.00    +0.211 HD
ENDBRANCH   3  22
BRANCH   5  24
ATOM     24  C   UNL     1     -11.199  -8.438   3.896  1.00  0.00    +0.220 C 
BRANCH  24  25
ATOM     25  O   UNL     1      -9.862  -8.578   4.371  1.00  0.00    -0.245 OA
BRANCH  25  26
ATOM     26  S   UNL     1      -8.709  -7.677   3.668  1.00  0.00    +0.397 S 
ATOM     27  O   UNL     1      -8.292  -6.622   4.564  1.00  0.00    -0.169 OA
ATOM     28  O   UNL     1      -9.108  -7.415   2.303  1.00  0.00    -0.169 OA
BRANCH  26  29
ATOM     29  O   UNL     1      -7.494  -8.725   3.546  1.00  0.00    -0.264 OA
ATOM     30  H   UNL     1      -7.081  -8.787   4.431  1.00  0.00    +0.236 HD
ENDBRANCH  26  29
ENDBRANCH  25  26
ENDBRANCH  24  25
ENDBRANCH   5  24
BRANCH   4  31
ATOM     31  O   UNL     1     -11.277 -10.757   5.360  1.00  0.00    -0.387 OA
ATOM     32  H   UNL     1     -12.026 -10.372   5.868  1.00  0.00    +0.211 HD
ENDBRANCH   4  31
TORSDOF 11
ENDMDL
MODEL 5
REMARK VINA RESULT:    -5.860      4.491      6.689
REMARK INTER + INTRA:          -9.835
REMARK INTER:                  -8.528
REMARK INTRA:                  -1.308
REMARK UNBOUND:                -1.234
REMARK SMILES O=S(=O)(O)OC[C@@H]1O[C@H](O[C@H]2[C@@H]3OC[C@H]2O[C@@H](O)[C@H]3O)[C@@H](O)[C@H](O)[C@@H]1O
REMARK SMILES IDX 9 1 21 2 23 3 25 4 7 5 8 6 10 7 11 8 14 9 15 10 13 11 16 12
REMARK SMILES IDX 12 13 17 14 19 15 18 16 20 18 22 20 24 22 6 24 5 25 2 26
REMARK SMILES IDX 1 27 3 28 4 29 26 31
REMARK H PARENT 18 17 20 19 22 21 24 23 4 30 26 32
ROOT
ATOM      1  C   UNL     1       4.113   1.765 -12.935  1.00  0.00    +0.282 C 
ATOM      2  C   UNL     1       4.321   2.562 -11.633  1.00  0.00    +0.202 C 
ATOM      3  C   UNL     1       5.572   3.409 -11.789  1.00  0.00    +0.179 C 
ATOM      4  C   UNL     1       5.348   4.442 -12.898  1.00  0.00    +0.177 C 
ATOM      5  C   UNL     1       4.507   3.891 -14.074  1.00  0.00    +0.180 C 
ATOM      6  O   UNL     1       4.508   2.452 -14.122  1.00  0.00    -0.341 OA
ENDROOT
BRANCH   1   7
ATOM      7  O   UNL     1       2.753   1.325 -12.967  1.00  0.00    -0.341 OA
BRANCH   7   8
ATOM      8  C   UNL     1       2.628  -0.080 -13.160  1.00  0.00    +0.184 C 
ATOM      9  C   UNL     1       1.371  -2.029 -13.500  1.00  0.00    +0.195 C 
ATOM     10  C   UNL     1       1.305  -0.524 -13.764  1.00  0.00    +0.179 C 
ATOM     11  O   UNL     1       2.098  -2.181 -12.254  1.00  0.00    -0.370 OA
ATOM     12  O   UNL     1       0.206   0.123 -13.098  1.00  0.00    -0.342 OA
ATOM     13  C   UNL     1       2.510  -0.849 -11.850  1.00  0.00    +0.184 C 
ATOM     14  C   UNL     1       0.085  -0.120 -11.700  1.00  0.00    +0.279 C 
ATOM     15  C   UNL     1       1.436  -0.212 -10.957  1.00  0.00    +0.202 C 
BRANCH  14  16
ATOM     16  O   UNL     1      -0.670  -1.314 -11.507  1.00  0.00    -0.366 OA
ATOM     17  H   UNL     1      -0.406  -1.630 -10.625  1.00  0.00    +0.213 HD
ENDBRANCH  14  16
BRANCH  15  18
ATOM     18  O   UNL     1       1.298  -0.954  -9.738  1.00  0.00    -0.385 OA
ATOM     19  H   UNL     1       1.051  -0.275  -9.074  1.00  0.00    +0.211 HD
ENDBRANCH  15  18
ENDBRANCH   7   8
ENDBRANCH   1   7
BRANCH   2  20
ATOM     20  O   UNL     1       4.480   1.688 -10.502  1.00  0.00    -0.385 OA
ATOM     21  H   UNL     1       5.435   1.686 -10.295  1.00  0.00    +0.211 HD
ENDBRANCH   2  20
BRANCH   3  22
ATOM     22  O   UNL     1       5.872   4.092 -10.560  1.00  0.00    -0.387 OA
ATOM     23  H   UNL     1       5.300   3.663  -9.890  1.00  0.00    +0.211 HD
ENDBRANCH   3  22
BRANCH   5  24
ATOM     24  C   UNL     1       3.084   4.467 -14.185  1.00  0.00    +0.220 C 
BRANCH  24  25
ATOM     25  O   UNL     1       3.169   5.781 -14.732  1.00  0.00    -0.245 OA
BRANCH  25  26
ATOM     26  S   UNL     1       2.141   6.904 -14.168  1.00  0.00    +0.397 S 
ATOM     27  O   UNL     1       0.899   6.851 -14.905  1.00  0.00    -0.169 OA
ATOM     28  O   UNL     1       2.873   8.136 -13.980  1.00  0.00    -0.169 OA
BRANCH  26  29
ATOM     29  O   UNL     1       1.848   6.370 -12.678  1.00  0.00    -0.264 OA
ATOM     30  H   UNL     1       2.187   7.048 -12.060  1.00  0.00    +0.236 HD
ENDBRANCH  26  29
ENDBRANCH  25  26
ENDBRANCH  24  25
ENDBRANCH   5  24
BRANCH   4  31
ATOM     31  O   UNL     1       4.751   5.615 -12.332  1.00  0.00    -0.387 OA
ATOM     32  H   UNL     1       4.919   5.542 -11.366  1.00  0.00    +0.211 HD
ENDBRANCH   4  31
TORSDOF 11
ENDMDL
MODEL 6
REMARK VINA RESULT:    -5.678      4.243      5.808
REMARK INTER + INTRA:          -9.567
REMARK INTER:                  -7.817
REMARK INTRA:                  -1.750
REMARK UNBOUND:                -1.234
REMARK SMILES O=S(=O)(O)OC[C@@H]1O[C@H](O[C@H]2[C@@H]3OC[C@H]2O[C@@H](O)[C@H]3O)[C@@H](O)[C@H](O)[C@@H]1O
REMARK SMILES IDX 9 1 21 2 23 3 25 4 7 5 8 6 10 7 11 8 14 9 15 10 13 11 16 12
REMARK SMILES IDX 12 13 17 14 19 15 18 16 20 18 22 20 24 22 6 24 5 25 2 26
REMARK SMILES IDX 1 27 3 28 4 29 26 31
REMARK H PARENT 18 17 20 19 22 21 24 23 4 30 26 32
ROOT
ATOM      1  C   UNL     1       7.551   1.765 -12.613  1.00  0.00    +0.282 C 
ATOM      2  C   UNL     1       8.652   1.501 -11.568  1.00  0.00    +0.202 C 
ATOM      3  C   UNL     1       9.679   2.617 -11.669  1.00  0.00    +0.179 C 
ATOM      4  C   UNL     1       9.022   3.945 -11.280  1.00  0.00    +0.177 C 
ATOM      5  C   UNL     1       7.555   4.055 -11.760  1.00  0.00    +0.180 C 
ATOM      6  O   UNL     1       7.260   3.144 -12.835  1.00  0.00    -0.341 OA
ENDROOT
BRANCH   1   7
ATOM      7  O   UNL     1       6.401   1.001 -12.239  1.00  0.00    -0.341 OA
BRANCH   7   8
ATOM      8  C   UNL     1       5.932   0.155 -13.284  1.00  0.00    +0.184 C 
ATOM      9  C   UNL     1       4.282  -1.140 -14.329  1.00  0.00    +0.195 C 
ATOM     10  C   UNL     1       4.418   0.067 -13.400  1.00  0.00    +0.179 C 
ATOM     11  O   UNL     1       5.396  -2.013 -14.009  1.00  0.00    -0.370 OA
ATOM     12  O   UNL     1       3.826  -0.139 -12.106  1.00  0.00    -0.342 OA
ATOM     13  C   UNL     1       6.190  -1.322 -13.011  1.00  0.00    +0.184 C 
ATOM     14  C   UNL     1       4.221  -1.318 -11.412  1.00  0.00    +0.279 C 
ATOM     15  C   UNL     1       5.708  -1.692 -11.601  1.00  0.00    +0.202 C 
BRANCH  14  16
ATOM     16  O   UNL     1       3.382  -2.394 -11.824  1.00  0.00    -0.366 OA
ATOM     17  H   UNL     1       3.671  -2.595 -12.732  1.00  0.00    +0.213 HD
ENDBRANCH  14  16
BRANCH  15  18
ATOM     18  O   UNL     1       5.918  -3.089 -11.355  1.00  0.00    -0.385 OA
ATOM     19  H   UNL     1       5.400  -3.265 -10.540  1.00  0.00    +0.211 HD
ENDBRANCH  15  18
ENDBRANCH   7   8
ENDBRANCH   1   7
BRANCH   2  20
ATOM     20  O   UNL     1       9.303   0.240 -11.797  1.00  0.00    -0.385 OA
ATOM     21  H   UNL     1      10.203   0.453 -12.113  1.00  0.00    +0.211 HD
ENDBRANCH   2  20
BRANCH   3  22
ATOM     22  O   UNL     1      10.786   2.361 -10.789  1.00  0.00    -0.387 OA
ATOM     23  H   UNL     1      10.518   2.750  -9.930  1.00  0.00    +0.211 HD
ENDBRANCH   3  22
BRANCH   5  24
ATOM     24  C   UNL     1       6.497   3.986 -10.643  1.00  0.00    +0.220 C 
BRANCH  24  25
ATOM     25  O   UNL     1       5.278   4.533 -11.140  1.00  0.00    -0.245 OA
BRANCH  25  26
ATOM     26  S   UNL     1       4.012   3.532 -11.309  1.00  0.00    +0.397 S 
ATOM     27  O   UNL     1       3.792   3.246 -12.709  1.00  0.00    -0.169 OA
ATOM     28  O   UNL     1       2.951   3.991 -10.441  1.00  0.00    -0.169 OA
BRANCH  26  29
ATOM     29  O   UNL     1       4.556   2.185 -10.615  1.00  0.00    -0.264 OA
ATOM     30  H   UNL     1       4.777   2.412  -9.688  1.00  0.00    +0.236 HD
ENDBRANCH  26  29
ENDBRANCH  25  26
ENDBRANCH  24  25
ENDBRANCH   5  24
BRANCH   4  31
ATOM     31  O   UNL     1       9.125   4.122  -9.863  1.00  0.00    -0.387 OA
ATOM     32  H   UNL     1       8.671   3.339  -9.479  1.00  0.00    +0.211 HD
ENDBRANCH   4  31
TORSDOF 11
ENDMDL
MODEL 7
REMARK VINA RESULT:    -5.653      2.900      5.829
REMARK INTER + INTRA:          -9.532
REMARK INTER:                  -8.717
REMARK INTRA:                  -0.815
REMARK UNBOUND:                -1.234
REMARK SMILES O=S(=O)(O)OC[C@@H]1O[C@H](O[C@H]2[C@@H]3OC[C@H]2O[C@@H](O)[C@H]3O)[C@@H](O)[C@H](O)[C@@H]1O
REMARK SMILES IDX 9 1 21 2 23 3 25 4 7 5 8 6 10 7 11 8 14 9 15 10 13 11 16 12
REMARK SMILES IDX 12 13 17 14 19 15 18 16 20 18 22 20 24 22 6 24 5 25 2 26
REMARK SMILES IDX 1 27 3 28 4 29 26 31
REMARK H PARENT 18 17 20 19 22 21 24 23 4 30 26 32
ROOT
ATOM      1  C   UNL     1       2.671  -1.538 -12.327  1.00  0.00    +0.282 C 
ATOM      2  C   UNL     1       3.787  -0.492 -12.144  1.00  0.00    +0.202 C 
ATOM      3  C   UNL     1       4.552  -0.831 -10.876  1.00  0.00    +0.179 C 
ATOM      4  C   UNL     1       5.250  -2.182 -11.053  1.00  0.00    +0.177 C 
ATOM      5  C   UNL     1       4.409  -3.193 -11.868  1.00  0.00    +0.180 C 
ATOM      6  O   UNL     1       3.010  -2.852 -11.888  1.00  0.00    -0.341 OA
ENDROOT
BRANCH   1   7
ATOM      7  O   UNL     1       2.248  -1.494 -13.693  1.00  0.00    -0.341 OA
BRANCH   7   8
ATOM      8  C   UNL     1       0.906  -1.043 -13.844  1.00  0.00    +0.184 C 
ATOM      9  C   UNL     1      -1.291  -1.278 -14.626  1.00  0.00    +0.195 C 
ATOM     10  C   UNL     1      -0.093  -2.131 -14.205  1.00  0.00    +0.179 C 
ATOM     11  O   UNL     1      -0.734  -0.079 -15.222  1.00  0.00    -0.370 OA
ATOM     12  O   UNL     1       0.422  -2.953 -15.268  1.00  0.00    -0.342 OA
ATOM     13  C   UNL     1       0.707  -0.179 -15.084  1.00  0.00    +0.184 C 
ATOM     14  C   UNL     1       0.718  -2.289 -16.492  1.00  0.00    +0.279 C 
ATOM     15  C   UNL     1       1.309  -0.873 -16.314  1.00  0.00    +0.202 C 
BRANCH  14  16
ATOM     16  O   UNL     1      -0.468  -2.237 -17.282  1.00  0.00    -0.366 OA
ATOM     17  H   UNL     1      -0.794  -3.154 -17.294  1.00  0.00    +0.213 HD
ENDBRANCH  14  16
BRANCH  15  18
ATOM     18  O   UNL     1       1.093  -0.079 -17.488  1.00  0.00    -0.385 OA
ATOM     19  H   UNL     1       1.004   0.835 -17.143  1.00  0.00    +0.211 HD
ENDBRANCH  15  18
ENDBRANCH   7   8
ENDBRANCH   1   7
BRANCH   2  20
ATOM     20  O   UNL     1       3.248   0.836 -12.029  1.00  0.00    -0.385 OA
ATOM     21  H   UNL     1       2.427   0.751 -11.506  1.00  0.00    +0.211 HD
ENDBRANCH   2  20
BRANCH   3  22
ATOM     22  O   UNL     1       5.537   0.179 -10.600  1.00  0.00    -0.387 OA
ATOM     23  H   UNL     1       5.113   1.022 -10.866  1.00  0.00    +0.211 HD
ENDBRANCH   3  22
BRANCH   5  24
ATOM     24  C   UNL     1       4.944  -3.499 -13.279  1.00  0.00    +0.220 C 
BRANCH  24  25
ATOM     25  O   UNL     1       4.175  -4.563 -13.834  1.00  0.00    -0.245 OA
BRANCH  25  26
ATOM     26  S   UNL     1       4.551  -6.080 -13.394  1.00  0.00    +0.397 S 
ATOM     27  O   UNL     1       5.927  -6.139 -12.956  1.00  0.00    -0.169 OA
ATOM     28  O   UNL     1       4.018  -6.986 -14.385  1.00  0.00    -0.169 OA
BRANCH  26  29
ATOM     29  O   UNL     1       3.617  -6.293 -12.100  1.00  0.00    -0.264 OA
ATOM     30  H   UNL     1       3.286  -7.213 -12.136  1.00  0.00    +0.236 HD
ENDBRANCH  26  29
ENDBRANCH  25  26
ENDBRANCH  24  25
ENDBRANCH   5  24
BRANCH   4  31
ATOM     31  O   UNL     1       6.536  -1.971 -11.647  1.00  0.00    -0.387 OA
ATOM     32  H   UNL     1       7.127  -1.747 -10.893  1.00  0.00    +0.211 HD
ENDBRANCH   4  31
TORSDOF 11
ENDMDL
MODEL 8
REMARK VINA RESULT:    -5.601      3.600      4.977
REMARK INTER + INTRA:          -9.454
REMARK INTER:                  -8.262
REMARK INTRA:                  -1.192
REMARK UNBOUND:                -1.234
REMARK SMILES O=S(=O)(O)OC[C@@H]1O[C@H](O[C@H]2[C@@H]3OC[C@H]2O[C@@H](O)[C@H]3O)[C@@H](O)[C@H](O)[C@@H]1O
REMARK SMILES IDX 9 1 21 2 23 3 25 4 7 5 8 6 10 7 11 8 14 9 15 10 13 11 16 12
REMARK SMILES IDX 12 13 17 14 19 15 18 16 20 18 22 20 24 22 6 24 5 25 2 26
REMARK SMILES IDX 1 27 3 28 4 29 26 31
REMARK H PARENT 18 17 20 19 22 21 24 23 4 30 26 32
ROOT
ATOM      1  C   UNL     1       5.028  -1.572 -12.640  1.00  0.00    +0.282 C 
ATOM      2  C   UNL     1       5.510  -1.326 -11.197  1.00  0.00    +0.202 C 
ATOM      3  C   UNL     1       7.027  -1.404 -11.184  1.00  0.00    +0.179 C 
ATOM      4  C   UNL     1       7.599  -0.264 -12.032  1.00  0.00    +0.177 C 
ATOM      5  C   UNL     1       6.746   0.041 -13.286  1.00  0.00    +0.180 C 
ATOM      6  O   UNL     1       5.895  -1.062 -13.652  1.00  0.00    -0.341 OA
ENDROOT
BRANCH   1   7
ATOM      7  O   UNL     1       3.690  -1.078 -12.745  1.00  0.00    -0.341 OA
BRANCH   7   8
ATOM      8  C   UNL     1       3.181  -1.129 -14.074  1.00  0.00    +0.184 C 
ATOM      9  C   UNL     1       1.814  -0.345 -15.809  1.00  0.00    +0.195 C 
ATOM     10  C   UNL     1       2.532   0.159 -14.556  1.00  0.00    +0.179 C 
ATOM     11  O   UNL     1       1.424  -1.712 -15.519  1.00  0.00    -0.370 OA
ATOM     12  O   UNL     1       1.636   0.676 -13.555  1.00  0.00    -0.342 OA
ATOM     13  C   UNL     1       1.954  -2.024 -14.205  1.00  0.00    +0.184 C 
ATOM     14  C   UNL     1       0.558  -0.173 -13.176  1.00  0.00    +0.279 C 
ATOM     15  C   UNL     1       0.925  -1.673 -13.122  1.00  0.00    +0.202 C 
BRANCH  14  16
ATOM     16  O   UNL     1      -0.529   0.040 -14.073  1.00  0.00    -0.366 OA
ATOM     17  H   UNL     1      -0.729  -0.845 -14.428  1.00  0.00    +0.213 HD
ENDBRANCH  14  16
BRANCH  15  18
ATOM     18  O   UNL     1      -0.245  -2.489 -13.264  1.00  0.00    -0.385 OA
ATOM     19  H   UNL     1       0.113  -3.387 -13.433  1.00  0.00    +0.211 HD
ENDBRANCH  15  18
ENDBRANCH   7   8
ENDBRANCH   1   7
BRANCH   2  20
ATOM     20  O   UNL     1       4.979  -2.308 -10.291  1.00  0.00    -0.385 OA
ATOM     21  H   UNL     1       4.591  -3.010 -10.850  1.00  0.00    +0.211 HD
ENDBRANCH   2  20
BRANCH   3  22
ATOM     22  O   UNL     1       7.524  -1.290  -9.840  1.00  0.00    -0.387 OA
ATOM     23  H   UNL     1       7.967  -2.146  -9.663  1.00  0.00    +0.211 HD
ENDBRANCH   3  22
BRANCH   5  24
ATOM     24  C   UNL     1       5.973   1.372 -13.241  1.00  0.00    +0.220 C 
BRANCH  24  25
ATOM     25  O   UNL     1       5.563   1.612 -11.897  1.00  0.00    -0.245 OA
BRANCH  25  26
ATOM     26  S   UNL     1       4.235   2.515 -11.661  1.00  0.00    +0.397 S 
ATOM     27  O   UNL     1       3.833   3.136 -12.902  1.00  0.00    -0.169 OA
ATOM     28  O   UNL     1       4.412   3.272 -10.442  1.00  0.00    -0.169 OA
BRANCH  26  29
ATOM     29  O   UNL     1       3.134   1.399 -11.294  1.00  0.00    -0.264 OA
ATOM     30  H   UNL     1       3.598   0.537 -11.274  1.00  0.00    +0.236 HD
ENDBRANCH  26  29
ENDBRANCH  25  26
ENDBRANCH  24  25
ENDBRANCH   5  24
BRANCH   4  31
ATOM     31  O   UNL     1       7.757   0.898 -11.210  1.00  0.00    -0.387 OA
ATOM     32  H   UNL     1       7.435   0.623 -10.322  1.00  0.00    +0.211 HD
ENDBRANCH   4  31
TORSDOF 11
ENDMDL
MODEL 9
REMARK VINA RESULT:    -5.587      3.657      5.091
REMARK INTER + INTRA:          -9.434
REMARK INTER:                  -8.273
REMARK INTRA:                  -1.161
REMARK UNBOUND:                -1.234
REMARK SMILES O=S(=O)(O)OC[C@@H]1O[C@H](O[C@H]2[C@@H]3OC[C@H]2O[C@@H](O)[C@H]3O)[C@@H](O)[C@H](O)[C@@H]1O
REMARK SMILES IDX 9 1 21 2 23 3 25 4 7 5 8 6 10 7 11 8 14 9 15 10 13 11 16 12
REMARK SMILES IDX 12 13 17 14 19 15 18 16 20 18 22 20 24 22 6 24 5 25 2 26
REMARK SMILES IDX 1 27 3 28 4 29 26 31
REMARK H PARENT 18 17 20 19 22 21 24 23 4 30 26 32
ROOT
ATOM      1  C   UNL     1       2.634   0.263 -12.806  1.00  0.00    +0.282 C 
ATOM      2  C   UNL     1       2.488  -0.590 -11.531  1.00  0.00    +0.202 C 
ATOM      3  C   UNL     1       1.146  -0.267 -10.896  1.00  0.00    +0.179 C 
ATOM      4  C   UNL     1       0.022  -0.703 -11.840  1.00  0.00    +0.177 C 
ATOM      5  C   UNL     1       0.365  -0.476 -13.332  1.00  0.00    +0.180 C 
ATOM      6  O   UNL     1       1.416   0.493 -13.511  1.00  0.00    -0.341 OA
ENDROOT
BRANCH   1   7
ATOM      7  O   UNL     1       3.650  -0.333 -13.618  1.00  0.00    -0.341 OA
BRANCH   7   8
ATOM      8  C   UNL     1       4.693   0.574 -13.958  1.00  0.00    +0.184 C 
ATOM      9  C   UNL     1       6.637   1.164 -15.128  1.00  0.00    +0.195 C 
ATOM     10  C   UNL     1       5.413   0.255 -15.259  1.00  0.00    +0.179 C 
ATOM     11  O   UNL     1       6.937   1.220 -13.709  1.00  0.00    -0.370 OA
ATOM     12  O   UNL     1       5.746  -1.143 -15.320  1.00  0.00    -0.342 OA
ATOM     13  C   UNL     1       5.901   0.459 -13.036  1.00  0.00    +0.184 C 
ATOM     14  C   UNL     1       6.594  -1.635 -14.288  1.00  0.00    +0.279 C 
ATOM     15  C   UNL     1       6.327  -1.009 -12.901  1.00  0.00    +0.202 C 
BRANCH  14  16
ATOM     16  O   UNL     1       7.950  -1.429 -14.673  1.00  0.00    -0.366 OA
ATOM     17  H   UNL     1       8.172  -2.208 -15.213  1.00  0.00    +0.213 HD
ENDBRANCH  14  16
BRANCH  15  18
ATOM     18  O   UNL     1       7.485  -1.117 -12.062  1.00  0.00    -0.385 OA
ATOM     19  H   UNL     1       7.178  -1.659 -11.304  1.00  0.00    +0.211 HD
ENDBRANCH  15  18
ENDBRANCH   7   8
ENDBRANCH   1   7
BRANCH   2  20
ATOM     20  O   UNL     1       3.536  -0.308 -10.588  1.00  0.00    -0.385 OA
ATOM     21  H   UNL     1       4.331  -0.106 -11.119  1.00  0.00    +0.211 HD
ENDBRANCH   2  20
BRANCH   3  22
ATOM     22  O   UNL     1       1.005  -0.957  -9.643  1.00  0.00    -0.387 OA
ATOM     23  H   UNL     1       0.191  -0.585  -9.243  1.00  0.00    +0.211 HD
ENDBRANCH   3  22
BRANCH   5  24
ATOM     24  C   UNL     1       0.624  -1.758 -14.145  1.00  0.00    +0.220 C 
BRANCH  24  25
ATOM     25  O   UNL     1      -0.245  -1.760 -15.275  1.00  0.00    -0.245 OA
BRANCH  25  26
ATOM     26  S   UNL     1      -1.701  -2.458 -15.110  1.00  0.00    +0.397 S 
ATOM     27  O   UNL     1      -1.723  -3.278 -13.920  1.00  0.00    -0.169 OA
ATOM     28  O   UNL     1      -2.112  -2.962 -16.401  1.00  0.00    -0.169 OA
BRANCH  26  29
ATOM     29  O   UNL     1      -2.653  -1.187 -14.845  1.00  0.00    -0.264 OA
ATOM     30  H   UNL     1      -3.479  -1.340 -15.347  1.00  0.00    +0.236 HD
ENDBRANCH  26  29
ENDBRANCH  25  26
ENDBRANCH  24  25
ENDBRANCH   5  24
BRANCH   4  31
ATOM     31  O   UNL     1      -0.303  -2.074 -11.581  1.00  0.00    -0.387 OA
ATOM     32  H   UNL     1      -0.732  -2.391 -12.407  1.00  0.00    +0.211 HD
ENDBRANCH   4  31
TORSDOF 11
ENDMDL
