MODEL 1
REMARK VINA RESULT:    -7.194      0.000      0.000
REMARK INTER + INTRA:         -15.905
REMARK INTER:                 -13.712
REMARK INTRA:                  -2.193
REMARK UNBOUND:                -2.193
REMARK SMILES C[C@H](NC(=O)CCC(=O)O)C(=O)N[C@@H](C)C(=O)N1CCC[C@@H]1C(=O)N[C@H](Cc1ccccc1)C(=O)Nc1ccc([N+](=O)[O-])cc1
REMARK SMILES IDX 14 1 15 2 13 3 11 4 12 5 2 7 1 8 3 9 4 10 5 11 6 13 7 14
REMARK SMILES IDX 8 15 9 16 10 17 16 19 17 20 18 21 19 22 22 23 20 24 21 25
REMARK SMILES IDX 23 26 24 27 25 28 26 30 27 31 28 32 29 33 33 34 30 35 32 36
REMARK SMILES IDX 31 37 34 38 35 39 36 40 37 42 38 43 45 44 39 45 44 46 40 47
REMARK SMILES IDX 41 48 42 49 43 50
REMARK H PARENT 13 6 3 12 10 18 25 29 36 41
ROOT
ATOM      1  C   UNL     1     -11.191   1.145  12.375  1.00  0.00    +0.168 C 
ATOM      2  C   UNL     1     -10.223   0.004  12.669  1.00  0.00    +0.041 C 
ENDROOT
BRANCH   1   3
ATOM      3  N   UNL     1     -10.617   2.065  11.399  1.00  0.00    -0.343 N 
ATOM      4  C   UNL     1     -11.342   2.623  10.370  1.00  0.00    +0.242 C 
ATOM      5  O   UNL     1     -12.529   2.369  10.189  1.00  0.00    -0.273 OA
ATOM      6  H   UNL     1      -9.690   2.436  11.599  1.00  0.00    +0.164 HD
BRANCH   4   7
ATOM      7  C   UNL     1     -10.560   3.683   9.567  1.00  0.00    +0.168 C 
ATOM      8  C   UNL     1     -11.335   4.991   9.476  1.00  0.00    +0.041 C 
BRANCH   7   9
ATOM      9  N   UNL     1     -10.238   3.168   8.234  1.00  0.00    -0.345 N 
ATOM     10  C   UNL     1      -9.096   3.551   7.571  1.00  0.00    +0.221 C 
ATOM     11  O   UNL     1      -8.223   4.246   8.077  1.00  0.00    -0.275 OA
ATOM     12  H   UNL     1     -10.996   2.754   7.702  1.00  0.00    +0.164 HD
BRANCH  10  13
ATOM     13  C   UNL     1      -9.000   2.981   6.170  1.00  0.00    +0.111 C 
BRANCH  13  14
ATOM     14  C   UNL     1      -9.459   1.529   6.120  1.00  0.00    +0.132 C 
BRANCH  14  15
ATOM     15  C   UNL     1     -10.757   1.403   5.372  1.00  0.00    +0.303 C 
ATOM     16  O   UNL     1     -10.920   0.933   4.259  1.00  0.00    -0.252 OA
BRANCH  15  17
ATOM     17  O   UNL     1     -11.790   1.933   6.053  1.00  0.00    -0.481 OA
ATOM     18  H   UNL     1     -11.479   1.951   6.983  1.00  0.00    +0.296 HD
ENDBRANCH  15  17
ENDBRANCH  14  15
ENDBRANCH  13  14
ENDBRANCH  10  13
ENDBRANCH   7   9
ENDBRANCH   4   7
ENDBRANCH   1   3
BRANCH   1  19
ATOM     19  C   UNL     1     -11.469   1.956  13.656  1.00  0.00    +0.245 C 
ATOM     20  O   UNL     1     -10.753   1.814  14.655  1.00  0.00    -0.272 OA
BRANCH  19  21
ATOM     21  N   UNL     1     -12.551   2.805  13.668  1.00  0.00    -0.329 N 
ATOM     22  C   UNL     1     -12.546   4.260  13.693  1.00  0.00    +0.120 C 
ATOM     23  C   UNL     1     -13.907   2.274  13.755  1.00  0.00    +0.174 C 
ATOM     24  C   UNL     1     -14.001   4.655  13.917  1.00  0.00    +0.024 C 
ATOM     25  C   UNL     1     -14.783   3.465  13.368  1.00  0.00    +0.037 C 
BRANCH  23  26
ATOM     26  C   UNL     1     -14.242   1.803  15.188  1.00  0.00    +0.243 C 
ATOM     27  O   UNL     1     -14.742   2.531  16.044  1.00  0.00    -0.273 OA
ATOM     28  N   UNL     1     -13.980   0.463  15.414  1.00  0.00    -0.342 N 
ATOM     29  H   UNL     1     -13.931  -0.130  14.593  1.00  0.00    +0.164 HD
BRANCH  28  30
ATOM     30  C   UNL     1     -14.498  -0.190  16.619  1.00  0.00    +0.176 C 
BRANCH  30  31
ATOM     31  C   UNL     1     -13.352  -0.827  17.420  1.00  0.00    +0.070 C 
BRANCH  31  32
ATOM     32  C   UNL     1     -13.025  -0.078  18.691  1.00  0.00    -0.045 A 
ATOM     33  C   UNL     1     -12.962  -0.751  19.918  1.00  0.00    +0.004 A 
ATOM     34  C   UNL     1     -12.818   1.308  18.661  1.00  0.00    +0.004 A 
ATOM     35  C   UNL     1     -12.707  -0.048  21.097  1.00  0.00    +0.000 A 
ATOM     36  C   UNL     1     -12.562   2.008  19.841  1.00  0.00    +0.000 A 
ATOM     37  C   UNL     1     -12.510   1.331  21.057  1.00  0.00    +0.000 A 
ENDBRANCH  31  32
ENDBRANCH  30  31
BRANCH  30  38
ATOM     38  C   UNL     1     -15.502  -1.270  16.146  1.00  0.00    +0.247 C 
ATOM     39  O   UNL     1     -16.194  -1.879  16.963  1.00  0.00    -0.272 OA
ATOM     40  N   UNL     1     -15.555  -1.407  14.770  1.00  0.00    -0.324 N 
ATOM     41  H   UNL     1     -14.957  -0.788  14.231  1.00  0.00    +0.170 HD
BRANCH  40  42
ATOM     42  C   UNL     1     -16.382  -2.264  14.018  1.00  0.00    +0.041 A 
ATOM     43  C   UNL     1     -16.044  -3.575  13.674  1.00  0.00    +0.033 A 
ATOM     44  C   UNL     1     -17.616  -1.746  13.599  1.00  0.00    +0.033 A 
ATOM     45  C   UNL     1     -16.923  -4.366  12.923  1.00  0.00    +0.088 A 
ATOM     46  C   UNL     1     -18.504  -2.526  12.849  1.00  0.00    +0.088 A 
ATOM     47  C   UNL     1     -18.152  -3.837  12.513  1.00  0.00    +0.269 A 
BRANCH  47  48
ATOM     48  N   UNL     1     -19.077  -4.663  11.728  1.00  0.00    +0.062 N 
ATOM     49  O   UNL     1     -20.011  -4.089  11.149  1.00  0.00    -0.258 OA
ATOM     50  O   UNL     1     -18.871  -5.885  11.692  1.00  0.00    -0.258 OA
ENDBRANCH  47  48
ENDBRANCH  40  42
ENDBRANCH  30  38
ENDBRANCH  28  30
ENDBRANCH  23  26
ENDBRANCH  19  21
ENDBRANCH   1  19
TORSDOF 16
ENDMDL
MODEL 2
REMARK VINA RESULT:    -7.104      9.153     15.121
REMARK INTER + INTRA:         -15.735
REMARK INTER:                 -13.390
REMARK INTRA:                  -2.346
REMARK UNBOUND:                -2.193
REMARK SMILES C[C@H](NC(=O)CCC(=O)O)C(=O)N[C@@H](C)C(=O)N1CCC[C@@H]1C(=O)N[C@H](Cc1ccccc1)C(=O)Nc1ccc([N+](=O)[O-])cc1
REMARK SMILES IDX 14 1 15 2 13 3 11 4 12 5 2 7 1 8 3 9 4 10 5 11 6 13 7 14
REMARK SMILES IDX 8 15 9 16 10 17 16 19 17 20 18 21 19 22 22 23 20 24 21 25
REMARK SMILES IDX 23 26 24 27 25 28 26 30 27 31 28 32 29 33 33 34 30 35 32 36
REMARK SMILES IDX 31 37 34 38 35 39 36 40 37 42 38 43 45 44 39 45 44 46 40 47
REMARK SMILES IDX 41 48 42 49 43 50
REMARK H PARENT 13 6 3 12 10 18 25 29 36 41
ROOT
ATOM      1  C   UNL     1     -12.382   2.215  -1.887  1.00  0.00    +0.168 C 
ATOM      2  C   UNL     1     -12.727   3.601  -2.423  1.00  0.00    +0.041 C 
ENDROOT
BRANCH   1   3
ATOM      3  N   UNL     1     -13.523   1.316  -2.020  1.00  0.00    -0.343 N 
ATOM      4  C   UNL     1     -13.678   0.443  -3.074  1.00  0.00    +0.242 C 
ATOM      5  O   UNL     1     -12.868   0.372  -3.994  1.00  0.00    -0.273 OA
ATOM      6  H   UNL     1     -14.132   1.215  -1.210  1.00  0.00    +0.164 HD
BRANCH   4   7
ATOM      7  C   UNL     1     -14.878  -0.513  -2.913  1.00  0.00    +0.168 C 
ATOM      8  C   UNL     1     -15.222  -0.727  -1.445  1.00  0.00    +0.041 C 
BRANCH   7   9
ATOM      9  N   UNL     1     -14.598  -1.787  -3.580  1.00  0.00    -0.345 N 
ATOM     10  C   UNL     1     -15.132  -2.087  -4.812  1.00  0.00    +0.221 C 
ATOM     11  O   UNL     1     -15.774  -1.287  -5.482  1.00  0.00    -0.275 OA
ATOM     12  H   UNL     1     -14.243  -2.542  -3.005  1.00  0.00    +0.164 HD
BRANCH  10  13
ATOM     13  C   UNL     1     -14.799  -3.489  -5.280  1.00  0.00    +0.111 C 
BRANCH  13  14
ATOM     14  C   UNL     1     -15.149  -4.533  -4.227  1.00  0.00    +0.132 C 
BRANCH  14  15
ATOM     15  C   UNL     1     -13.966  -5.413  -3.930  1.00  0.00    +0.303 C 
ATOM     16  O   UNL     1     -13.782  -6.551  -4.323  1.00  0.00    -0.252 OA
BRANCH  15  17
ATOM     17  O   UNL     1     -13.090  -4.820  -3.097  1.00  0.00    -0.481 OA
ATOM     18  H   UNL     1     -13.315  -5.183  -2.215  1.00  0.00    +0.296 HD
ENDBRANCH  15  17
ENDBRANCH  14  15
ENDBRANCH  13  14
ENDBRANCH  10  13
ENDBRANCH   7   9
ENDBRANCH   4   7
ENDBRANCH   1   3
BRANCH   1  19
ATOM     19  C   UNL     1     -12.035   2.292  -0.387  1.00  0.00    +0.245 C 
ATOM     20  O   UNL     1     -10.869   2.490  -0.023  1.00  0.00    -0.272 OA
BRANCH  19  21
ATOM     21  N   UNL     1     -13.045   2.098   0.526  1.00  0.00    -0.329 N 
ATOM     22  C   UNL     1     -14.289   2.842   0.656  1.00  0.00    +0.120 C 
ATOM     23  C   UNL     1     -12.903   1.107   1.587  1.00  0.00    +0.174 C 
ATOM     24  C   UNL     1     -14.913   2.343   1.954  1.00  0.00    +0.024 C 
ATOM     25  C   UNL     1     -14.327   0.944   2.118  1.00  0.00    +0.037 C 
BRANCH  23  26
ATOM     26  C   UNL     1     -11.964   1.606   2.708  1.00  0.00    +0.243 C 
ATOM     27  O   UNL     1     -11.377   0.857   3.488  1.00  0.00    -0.273 OA
ATOM     28  N   UNL     1     -11.792   2.979   2.726  1.00  0.00    -0.342 N 
ATOM     29  H   UNL     1     -11.991   3.469   1.861  1.00  0.00    +0.164 HD
BRANCH  28  30
ATOM     30  C   UNL     1     -10.727   3.572   3.540  1.00  0.00    +0.176 C 
BRANCH  30  31
ATOM     31  C   UNL     1     -11.276   4.009   4.906  1.00  0.00    +0.070 C 
BRANCH  31  32
ATOM     32  C   UNL     1     -10.619   3.299   6.068  1.00  0.00    -0.045 A 
ATOM     33  C   UNL     1      -9.462   2.533   5.872  1.00  0.00    +0.004 A 
ATOM     34  C   UNL     1     -11.182   3.368   7.349  1.00  0.00    +0.004 A 
ATOM     35  C   UNL     1      -8.885   1.840   6.938  1.00  0.00    +0.000 A 
ATOM     36  C   UNL     1     -10.603   2.675   8.413  1.00  0.00    +0.000 A 
ATOM     37  C   UNL     1      -9.458   1.910   8.206  1.00  0.00    +0.000 A 
ENDBRANCH  31  32
ENDBRANCH  30  31
BRANCH  30  38
ATOM     38  C   UNL     1     -10.185   4.790   2.752  1.00  0.00    +0.247 C 
ATOM     39  O   UNL     1      -9.134   5.334   3.090  1.00  0.00    -0.272 OA
ATOM     40  N   UNL     1     -10.962   5.125   1.656  1.00  0.00    -0.324 N 
ATOM     41  H   UNL     1     -11.773   4.539   1.481  1.00  0.00    +0.170 HD
BRANCH  40  42
ATOM     42  C   UNL     1     -10.733   6.147   0.715  1.00  0.00    +0.041 A 
ATOM     43  C   UNL     1     -10.996   7.500   0.949  1.00  0.00    +0.033 A 
ATOM     44  C   UNL     1     -10.209   5.759  -0.527  1.00  0.00    +0.033 A 
ATOM     45  C   UNL     1     -10.739   8.458  -0.039  1.00  0.00    +0.088 A 
ATOM     46  C   UNL     1      -9.948   6.707  -1.523  1.00  0.00    +0.088 A 
ATOM     47  C   UNL     1     -10.215   8.057  -1.273  1.00  0.00    +0.269 A 
BRANCH  47  48
ATOM     48  N   UNL     1      -9.943   9.059  -2.311  1.00  0.00    +0.062 N 
ATOM     49  O   UNL     1     -10.252  10.235  -2.071  1.00  0.00    -0.258 OA
ATOM     50  O   UNL     1      -9.423   8.670  -3.367  1.00  0.00    -0.258 OA
ENDBRANCH  47  48
ENDBRANCH  40  42
ENDBRANCH  30  38
ENDBRANCH  28  30
ENDBRANCH  23  26
ENDBRANCH  19  21
ENDBRANCH   1  19
TORSDOF 16
ENDMDL
MODEL 3
REMARK VINA RESULT:    -6.972      5.430     13.465
REMARK INTER + INTRA:         -15.483
REMARK INTER:                 -12.479
REMARK INTRA:                  -3.004
REMARK UNBOUND:                -2.193
REMARK SMILES C[C@H](NC(=O)CCC(=O)O)C(=O)N[C@@H](C)C(=O)N1CCC[C@@H]1C(=O)N[C@H](Cc1ccccc1)C(=O)Nc1ccc([N+](=O)[O-])cc1
REMARK SMILES IDX 14 1 15 2 13 3 11 4 12 5 2 7 1 8 3 9 4 10 5 11 6 13 7 14
REMARK SMILES IDX 8 15 9 16 10 17 16 19 17 20 18 21 19 22 22 23 20 24 21 25
REMARK SMILES IDX 23 26 24 27 25 28 26 30 27 31 28 32 29 33 33 34 30 35 32 36
REMARK SMILES IDX 31 37 34 38 35 39 36 40 37 42 38 43 45 44 39 45 44 46 40 47
REMARK SMILES IDX 41 48 42 49 43 50
REMARK H PARENT 13 6 3 12 10 18 25 29 36 41
ROOT
ATOM      1  C   UNL     1     -14.825   3.599   5.979  1.00  0.00    +0.168 C 
ATOM      2  C   UNL     1     -16.081   4.462   5.921  1.00  0.00    +0.041 C 
ENDROOT
BRANCH   1   3
ATOM      3  N   UNL     1     -14.056   3.894   7.184  1.00  0.00    -0.343 N 
ATOM      4  C   UNL     1     -14.160   3.160   8.344  1.00  0.00    +0.242 C 
ATOM      5  O   UNL     1     -14.926   2.207   8.453  1.00  0.00    -0.273 OA
ATOM      6  H   UNL     1     -13.292   4.561   7.095  1.00  0.00    +0.164 HD
BRANCH   4   7
ATOM      7  C   UNL     1     -13.135   3.563   9.424  1.00  0.00    +0.168 C 
ATOM      8  C   UNL     1     -12.002   4.390   8.831  1.00  0.00    +0.041 C 
BRANCH   7   9
ATOM      9  N   UNL     1     -12.619   2.369  10.098  1.00  0.00    -0.345 N 
ATOM     10  C   UNL     1     -12.892   2.117  11.423  1.00  0.00    +0.221 C 
ATOM     11  O   UNL     1     -13.662   2.793  12.094  1.00  0.00    -0.275 OA
ATOM     12  H   UNL     1     -11.841   1.889   9.660  1.00  0.00    +0.164 HD
BRANCH  10  13
ATOM     13  C   UNL     1     -12.186   0.884  11.952  1.00  0.00    +0.111 C 
BRANCH  13  14
ATOM     14  C   UNL     1     -10.987   0.508  11.089  1.00  0.00    +0.132 C 
BRANCH  14  15
ATOM     15  C   UNL     1      -9.757   1.253  11.527  1.00  0.00    +0.303 C 
ATOM     16  O   UNL     1      -9.057   1.011  12.495  1.00  0.00    -0.252 OA
BRANCH  15  17
ATOM     17  O   UNL     1      -9.500   2.315  10.739  1.00  0.00    -0.481 OA
ATOM     18  H   UNL     1      -8.522   2.387  10.747  1.00  0.00    +0.296 HD
ENDBRANCH  15  17
ENDBRANCH  14  15
ENDBRANCH  13  14
ENDBRANCH  10  13
ENDBRANCH   7   9
ENDBRANCH   4   7
ENDBRANCH   1   3
BRANCH   1  19
ATOM     19  C   UNL     1     -13.913   3.899   4.772  1.00  0.00    +0.245 C 
ATOM     20  O   UNL     1     -13.370   5.004   4.657  1.00  0.00    -0.272 OA
BRANCH  19  21
ATOM     21  N   UNL     1     -13.755   2.921   3.818  1.00  0.00    -0.329 N 
ATOM     22  C   UNL     1     -13.048   1.655   3.942  1.00  0.00    +0.120 C 
ATOM     23  C   UNL     1     -14.244   3.128   2.459  1.00  0.00    +0.174 C 
ATOM     24  C   UNL     1     -13.009   1.085   2.529  1.00  0.00    +0.024 C 
ATOM     25  C   UNL     1     -14.217   1.726   1.851  1.00  0.00    +0.037 C 
BRANCH  23  26
ATOM     26  C   UNL     1     -13.323   4.078   1.662  1.00  0.00    +0.243 C 
ATOM     27  O   UNL     1     -13.716   5.108   1.116  1.00  0.00    -0.273 OA
ATOM     28  N   UNL     1     -11.992   3.698   1.660  1.00  0.00    -0.342 N 
ATOM     29  H   UNL     1     -11.699   3.083   2.411  1.00  0.00    +0.164 HD
BRANCH  28  30
ATOM     30  C   UNL     1     -10.966   4.633   1.190  1.00  0.00    +0.176 C 
BRANCH  30  31
ATOM     31  C   UNL     1     -10.275   4.085  -0.067  1.00  0.00    +0.070 C 
BRANCH  31  32
ATOM     32  C   UNL     1     -11.243   3.711  -1.165  1.00  0.00    -0.045 A 
ATOM     33  C   UNL     1     -11.637   4.656  -2.121  1.00  0.00    +0.004 A 
ATOM     34  C   UNL     1     -11.790   2.420  -1.216  1.00  0.00    +0.004 A 
ATOM     35  C   UNL     1     -12.569   4.319  -3.105  1.00  0.00    +0.000 A 
ATOM     36  C   UNL     1     -12.721   2.087  -2.200  1.00  0.00    +0.000 A 
ATOM     37  C   UNL     1     -13.111   3.037  -3.142  1.00  0.00    +0.000 A 
ENDBRANCH  31  32
ENDBRANCH  30  31
BRANCH  30  38
ATOM     38  C   UNL     1      -9.949   4.799   2.346  1.00  0.00    +0.247 C 
ATOM     39  O   UNL     1      -8.814   5.223   2.123  1.00  0.00    -0.272 OA
ATOM     40  N   UNL     1     -10.471   4.483   3.588  1.00  0.00    -0.324 N 
ATOM     41  H   UNL     1     -11.446   4.200   3.609  1.00  0.00    +0.170 HD
BRANCH  40  42
ATOM     42  C   UNL     1      -9.832   4.560   4.840  1.00  0.00    +0.041 A 
ATOM     43  C   UNL     1      -9.307   3.458   5.521  1.00  0.00    +0.033 A 
ATOM     44  C   UNL     1      -9.728   5.833   5.421  1.00  0.00    +0.033 A 
ATOM     45  C   UNL     1      -8.683   3.618   6.764  1.00  0.00    +0.088 A 
ATOM     46  C   UNL     1      -9.105   6.006   6.662  1.00  0.00    +0.088 A 
ATOM     47  C   UNL     1      -8.584   4.894   7.331  1.00  0.00    +0.269 A 
BRANCH  47  48
ATOM     48  N   UNL     1      -7.929   5.066   8.633  1.00  0.00    +0.062 N 
ATOM     49  O   UNL     1      -8.597   4.829   9.649  1.00  0.00    -0.258 OA
ATOM     50  O   UNL     1      -6.747   5.440   8.639  1.00  0.00    -0.258 OA
ENDBRANCH  47  48
ENDBRANCH  40  42
ENDBRANCH  30  38
ENDBRANCH  28  30
ENDBRANCH  23  26
ENDBRANCH  19  21
ENDBRANCH   1  19
TORSDOF 16
ENDMDL
MODEL 4
REMARK VINA RESULT:    -6.729      3.266      7.018
REMARK INTER + INTRA:         -15.020
REMARK INTER:                 -12.965
REMARK INTRA:                  -2.055
REMARK UNBOUND:                -2.193
REMARK SMILES C[C@H](NC(=O)CCC(=O)O)C(=O)N[C@@H](C)C(=O)N1CCC[C@@H]1C(=O)N[C@H](Cc1ccccc1)C(=O)Nc1ccc([N+](=O)[O-])cc1
REMARK SMILES IDX 14 1 15 2 13 3 11 4 12 5 2 7 1 8 3 9 4 10 5 11 6 13 7 14
REMARK SMILES IDX 8 15 9 16 10 17 16 19 17 20 18 21 19 22 22 23 20 24 21 25
REMARK SMILES IDX 23 26 24 27 25 28 26 30 27 31 28 32 29 33 33 34 30 35 32 36
REMARK SMILES IDX 31 37 34 38 35 39 36 40 37 42 38 43 45 44 39 45 44 46 40 47
REMARK SMILES IDX 41 48 42 49 43 50
REMARK H PARENT 13 6 3 12 10 18 25 29 36 41
ROOT
ATOM      1  C   UNL     1     -12.601   4.007  11.303  1.00  0.00    +0.168 C 
ATOM      2  C   UNL     1     -13.815   4.312  10.431  1.00  0.00    +0.041 C 
ENDROOT
BRANCH   1   3
ATOM      3  N   UNL     1     -11.760   5.190  11.441  1.00  0.00    -0.343 N 
ATOM      4  C   UNL     1     -11.912   6.111  12.454  1.00  0.00    +0.242 C 
ATOM      5  O   UNL     1     -12.786   6.009  13.310  1.00  0.00    -0.273 OA
ATOM      6  H   UNL     1     -10.922   5.235  10.864  1.00  0.00    +0.164 HD
BRANCH   4   7
ATOM      7  C   UNL     1     -10.807   7.187  12.482  1.00  0.00    +0.168 C 
ATOM      8  C   UNL     1     -11.276   8.444  13.202  1.00  0.00    +0.041 C 
BRANCH   7   9
ATOM      9  N   UNL     1     -10.370   7.494  11.117  1.00  0.00    -0.345 N 
ATOM     10  C   UNL     1      -9.036   7.548  10.784  1.00  0.00    +0.221 C 
ATOM     11  O   UNL     1      -8.135   7.239  11.555  1.00  0.00    -0.275 OA
ATOM     12  H   UNL     1     -11.045   7.935  10.503  1.00  0.00    +0.164 HD
BRANCH  10  13
ATOM     13  C   UNL     1      -8.798   7.976   9.350  1.00  0.00    +0.111 C 
BRANCH  13  14
ATOM     14  C   UNL     1      -8.437   6.792   8.462  1.00  0.00    +0.132 C 
BRANCH  14  15
ATOM     15  C   UNL     1      -6.946   6.628   8.366  1.00  0.00    +0.303 C 
ATOM     16  O   UNL     1      -6.207   7.108   7.524  1.00  0.00    -0.252 OA
BRANCH  15  17
ATOM     17  O   UNL     1      -6.463   5.811   9.322  1.00  0.00    -0.481 OA
ATOM     18  H   UNL     1      -6.572   4.913   8.946  1.00  0.00    +0.296 HD
ENDBRANCH  15  17
ENDBRANCH  14  15
ENDBRANCH  13  14
ENDBRANCH  10  13
ENDBRANCH   7   9
ENDBRANCH   4   7
ENDBRANCH   1   3
BRANCH   1  19
ATOM     19  C   UNL     1     -11.738   2.907  10.653  1.00  0.00    +0.245 C 
ATOM     20  O   UNL     1     -11.672   2.809   9.422  1.00  0.00    -0.272 OA
BRANCH  19  21
ATOM     21  N   UNL     1     -11.080   2.024  11.476  1.00  0.00    -0.329 N 
ATOM     22  C   UNL     1     -10.122   0.994  11.102  1.00  0.00    +0.120 C 
ATOM     23  C   UNL     1     -11.380   1.979  12.903  1.00  0.00    +0.174 C 
ATOM     24  C   UNL     1      -9.892   0.188  12.374  1.00  0.00    +0.024 C 
ATOM     25  C   UNL     1     -10.218   1.178  13.489  1.00  0.00    +0.037 C 
BRANCH  23  26
ATOM     26  C   UNL     1     -12.721   1.262  13.180  1.00  0.00    +0.243 C 
ATOM     27  O   UNL     1     -13.218   0.432  12.421  1.00  0.00    -0.273 OA
ATOM     28  N   UNL     1     -13.295   1.596  14.394  1.00  0.00    -0.342 N 
ATOM     29  H   UNL     1     -12.671   1.974  15.098  1.00  0.00    +0.164 HD
BRANCH  28  30
ATOM     30  C   UNL     1     -14.409   0.801  14.918  1.00  0.00    +0.176 C 
BRANCH  30  31
ATOM     31  C   UNL     1     -15.742   1.297  14.339  1.00  0.00    +0.070 C 
BRANCH  31  32
ATOM     32  C   UNL     1     -16.595   0.187  13.769  1.00  0.00    -0.045 A 
ATOM     33  C   UNL     1     -17.770   0.480  13.066  1.00  0.00    +0.004 A 
ATOM     34  C   UNL     1     -16.237  -1.154  13.971  1.00  0.00    +0.004 A 
ATOM     35  C   UNL     1     -18.580  -0.549  12.583  1.00  0.00    +0.000 A 
ATOM     36  C   UNL     1     -17.048  -2.181  13.486  1.00  0.00    +0.000 A 
ATOM     37  C   UNL     1     -18.219  -1.878  12.795  1.00  0.00    +0.000 A 
ENDBRANCH  31  32
ENDBRANCH  30  31
BRANCH  30  38
ATOM     38  C   UNL     1     -14.388   0.961  16.459  1.00  0.00    +0.247 C 
ATOM     39  O   UNL     1     -15.242   1.642  17.027  1.00  0.00    -0.272 OA
ATOM     40  N   UNL     1     -13.381   0.236  17.072  1.00  0.00    -0.324 N 
ATOM     41  H   UNL     1     -12.791  -0.323  16.464  1.00  0.00    +0.170 HD
BRANCH  40  42
ATOM     42  C   UNL     1     -13.108   0.131  18.450  1.00  0.00    +0.041 A 
ATOM     43  C   UNL     1     -12.898   1.226  19.293  1.00  0.00    +0.033 A 
ATOM     44  C   UNL     1     -13.048  -1.164  18.987  1.00  0.00    +0.033 A 
ATOM     45  C   UNL     1     -12.633   1.038  20.655  1.00  0.00    +0.088 A 
ATOM     46  C   UNL     1     -12.784  -1.365  20.346  1.00  0.00    +0.088 A 
ATOM     47  C   UNL     1     -12.577  -0.259  21.177  1.00  0.00    +0.269 A 
BRANCH  47  48
ATOM     48  N   UNL     1     -12.302  -0.460  22.605  1.00  0.00    +0.062 N 
ATOM     49  O   UNL     1     -11.925  -1.584  22.965  1.00  0.00    -0.258 OA
ATOM     50  O   UNL     1     -12.465   0.505  23.365  1.00  0.00    -0.258 OA
ENDBRANCH  47  48
ENDBRANCH  40  42
ENDBRANCH  30  38
ENDBRANCH  28  30
ENDBRANCH  23  26
ENDBRANCH  19  21
ENDBRANCH   1  19
TORSDOF 16
ENDMDL
MODEL 5
REMARK VINA RESULT:    -6.664      3.688      6.516
REMARK INTER + INTRA:         -14.895
REMARK INTER:                 -12.249
REMARK INTRA:                  -2.646
REMARK UNBOUND:                -2.193
REMARK SMILES C[C@H](NC(=O)CCC(=O)O)C(=O)N[C@@H](C)C(=O)N1CCC[C@@H]1C(=O)N[C@H](Cc1ccccc1)C(=O)Nc1ccc([N+](=O)[O-])cc1
REMARK SMILES IDX 14 1 15 2 13 3 11 4 12 5 2 7 1 8 3 9 4 10 5 11 6 13 7 14
REMARK SMILES IDX 8 15 9 16 10 17 16 19 17 20 18 21 19 22 22 23 20 24 21 25
REMARK SMILES IDX 23 26 24 27 25 28 26 30 27 31 28 32 29 33 33 34 30 35 32 36
REMARK SMILES IDX 31 37 34 38 35 39 36 40 37 42 38 43 45 44 39 45 44 46 40 47
REMARK SMILES IDX 41 48 42 49 43 50
REMARK H PARENT 13 6 3 12 10 18 25 29 36 41
ROOT
ATOM      1  C   UNL     1     -12.495   3.544  10.712  1.00  0.00    +0.168 C 
ATOM      2  C   UNL     1     -13.460   3.259   9.566  1.00  0.00    +0.041 C 
ENDROOT
BRANCH   1   3
ATOM      3  N   UNL     1     -11.942   4.888  10.594  1.00  0.00    -0.343 N 
ATOM      4  C   UNL     1     -11.861   5.767  11.650  1.00  0.00    +0.242 C 
ATOM      5  O   UNL     1     -12.268   5.485  12.773  1.00  0.00    -0.273 OA
ATOM      6  H   UNL     1     -11.442   5.111   9.735  1.00  0.00    +0.164 HD
BRANCH   4   7
ATOM      7  C   UNL     1     -11.096   7.065  11.318  1.00  0.00    +0.168 C 
ATOM      8  C   UNL     1     -11.931   7.991  10.444  1.00  0.00    +0.041 C 
BRANCH   7   9
ATOM      9  N   UNL     1      -9.818   6.744  10.676  1.00  0.00    -0.345 N 
ATOM     10  C   UNL     1      -8.620   7.158  11.211  1.00  0.00    +0.221 C 
ATOM     11  O   UNL     1      -8.523   7.713  12.299  1.00  0.00    -0.275 OA
ATOM     12  H   UNL     1      -9.847   6.464   9.702  1.00  0.00    +0.164 HD
BRANCH  10  13
ATOM     13  C   UNL     1      -7.428   6.807  10.344  1.00  0.00    +0.111 C 
BRANCH  13  14
ATOM     14  C   UNL     1      -7.633   7.246   8.899  1.00  0.00    +0.132 C 
BRANCH  14  15
ATOM     15  C   UNL     1      -6.617   6.605   7.996  1.00  0.00    +0.303 C 
ATOM     16  O   UNL     1      -6.046   7.122   7.051  1.00  0.00    -0.252 OA
BRANCH  15  17
ATOM     17  O   UNL     1      -6.410   5.310   8.302  1.00  0.00    -0.481 OA
ATOM     18  H   UNL     1      -5.790   5.340   9.060  1.00  0.00    +0.296 HD
ENDBRANCH  15  17
ENDBRANCH  14  15
ENDBRANCH  13  14
ENDBRANCH  10  13
ENDBRANCH   7   9
ENDBRANCH   4   7
ENDBRANCH   1   3
BRANCH   1  19
ATOM     19  C   UNL     1     -11.310   2.558  10.673  1.00  0.00    +0.245 C 
ATOM     20  O   UNL     1     -10.634   2.433   9.645  1.00  0.00    -0.272 OA
BRANCH  19  21
ATOM     21  N   UNL     1     -11.055   1.802  11.793  1.00  0.00    -0.329 N 
ATOM     22  C   UNL     1     -10.265   0.584  11.889  1.00  0.00    +0.120 C 
ATOM     23  C   UNL     1     -11.681   2.134  13.068  1.00  0.00    +0.174 C 
ATOM     24  C   UNL     1     -10.505   0.069  13.302  1.00  0.00    +0.024 C 
ATOM     25  C   UNL     1     -10.874   1.327  14.084  1.00  0.00    +0.037 C 
BRANCH  23  26
ATOM     26  C   UNL     1     -13.166   1.708  13.099  1.00  0.00    +0.243 C 
ATOM     27  O   UNL     1     -13.594   0.689  12.559  1.00  0.00    -0.273 OA
ATOM     28  N   UNL     1     -13.975   2.548  13.845  1.00  0.00    -0.342 N 
ATOM     29  H   UNL     1     -13.509   3.121  14.540  1.00  0.00    +0.164 HD
BRANCH  28  30
ATOM     30  C   UNL     1     -15.334   2.130  14.197  1.00  0.00    +0.176 C 
BRANCH  30  31
ATOM     31  C   UNL     1     -16.290   3.333  14.171  1.00  0.00    +0.070 C 
BRANCH  31  32
ATOM     32  C   UNL     1     -16.237   4.109  12.876  1.00  0.00    -0.045 A 
ATOM     33  C   UNL     1     -15.714   5.408  12.845  1.00  0.00    +0.004 A 
ATOM     34  C   UNL     1     -16.746   3.550  11.695  1.00  0.00    +0.004 A 
ATOM     35  C   UNL     1     -15.711   6.140  11.656  1.00  0.00    +0.000 A 
ATOM     36  C   UNL     1     -16.740   4.284  10.508  1.00  0.00    +0.000 A 
ATOM     37  C   UNL     1     -16.226   5.578  10.490  1.00  0.00    +0.000 A 
ENDBRANCH  31  32
ENDBRANCH  30  31
BRANCH  30  38
ATOM     38  C   UNL     1     -15.261   1.519  15.618  1.00  0.00    +0.247 C 
ATOM     39  O   UNL     1     -15.968   1.961  16.525  1.00  0.00    -0.272 OA
ATOM     40  N   UNL     1     -14.393   0.445  15.710  1.00  0.00    -0.324 N 
ATOM     41  H   UNL     1     -13.923   0.169  14.854  1.00  0.00    +0.170 HD
BRANCH  40  42
ATOM     42  C   UNL     1     -14.123  -0.353  16.838  1.00  0.00    +0.041 A 
ATOM     43  C   UNL     1     -14.916  -1.430  17.244  1.00  0.00    +0.033 A 
ATOM     44  C   UNL     1     -12.981  -0.028  17.585  1.00  0.00    +0.033 A 
ATOM     45  C   UNL     1     -14.578  -2.178  18.379  1.00  0.00    +0.088 A 
ATOM     46  C   UNL     1     -12.632  -0.768  18.721  1.00  0.00    +0.088 A 
ATOM     47  C   UNL     1     -13.435  -1.843  19.114  1.00  0.00    +0.269 A 
BRANCH  47  48
ATOM     48  N   UNL     1     -13.077  -2.626  20.303  1.00  0.00    +0.062 N 
ATOM     49  O   UNL     1     -13.445  -2.197  21.406  1.00  0.00    -0.258 OA
ATOM     50  O   UNL     1     -12.425  -3.666  20.134  1.00  0.00    -0.258 OA
ENDBRANCH  47  48
ENDBRANCH  40  42
ENDBRANCH  30  38
ENDBRANCH  28  30
ENDBRANCH  23  26
ENDBRANCH  19  21
ENDBRANCH   1  19
TORSDOF 16
ENDMDL
MODEL 6
REMARK VINA RESULT:    -6.622      8.143     13.115
REMARK INTER + INTRA:         -14.815
REMARK INTER:                 -12.157
REMARK INTRA:                  -2.658
REMARK UNBOUND:                -2.193
REMARK SMILES C[C@H](NC(=O)CCC(=O)O)C(=O)N[C@@H](C)C(=O)N1CCC[C@@H]1C(=O)N[C@H](Cc1ccccc1)C(=O)Nc1ccc([N+](=O)[O-])cc1
REMARK SMILES IDX 14 1 15 2 13 3 11 4 12 5 2 7 1 8 3 9 4 10 5 11 6 13 7 14
REMARK SMILES IDX 8 15 9 16 10 17 16 19 17 20 18 21 19 22 22 23 20 24 21 25
REMARK SMILES IDX 23 26 24 27 25 28 26 30 27 31 28 32 29 33 33 34 30 35 32 36
REMARK SMILES IDX 31 37 34 38 35 39 36 40 37 42 38 43 45 44 39 45 44 46 40 47
REMARK SMILES IDX 41 48 42 49 43 50
REMARK H PARENT 13 6 3 12 10 18 25 29 36 41
ROOT
ATOM      1  C   UNL     1     -12.368   2.106   3.315  1.00  0.00    +0.168 C 
ATOM      2  C   UNL     1     -13.470   1.141   2.892  1.00  0.00    +0.041 C 
ENDROOT
BRANCH   1   3
ATOM      3  N   UNL     1     -12.416   2.339   4.754  1.00  0.00    -0.343 N 
ATOM      4  C   UNL     1     -11.307   2.666   5.503  1.00  0.00    +0.242 C 
ATOM      5  O   UNL     1     -10.187   2.768   5.011  1.00  0.00    -0.273 OA
ATOM      6  H   UNL     1     -13.336   2.432   5.180  1.00  0.00    +0.164 HD
BRANCH   4   7
ATOM      7  C   UNL     1     -11.634   3.018   6.969  1.00  0.00    +0.168 C 
ATOM      8  C   UNL     1     -13.050   3.560   7.106  1.00  0.00    +0.041 C 
BRANCH   7   9
ATOM      9  N   UNL     1     -10.651   3.973   7.487  1.00  0.00    -0.345 N 
ATOM     10  C   UNL     1      -9.678   3.591   8.382  1.00  0.00    +0.221 C 
ATOM     11  O   UNL     1      -9.490   2.428   8.717  1.00  0.00    -0.275 OA
ATOM     12  H   UNL     1     -10.872   4.959   7.398  1.00  0.00    +0.164 HD
BRANCH  10  13
ATOM     13  C   UNL     1      -8.827   4.747   8.866  1.00  0.00    +0.111 C 
BRANCH  13  14
ATOM     14  C   UNL     1      -7.607   4.960   7.978  1.00  0.00    +0.132 C 
BRANCH  14  15
ATOM     15  C   UNL     1      -6.705   6.018   8.551  1.00  0.00    +0.303 C 
ATOM     16  O   UNL     1      -6.310   6.101   9.701  1.00  0.00    -0.252 OA
BRANCH  15  17
ATOM     17  O   UNL     1      -6.387   6.960   7.644  1.00  0.00    -0.481 OA
ATOM     18  H   UNL     1      -6.392   6.480   6.789  1.00  0.00    +0.296 HD
ENDBRANCH  15  17
ENDBRANCH  14  15
ENDBRANCH  13  14
ENDBRANCH  10  13
ENDBRANCH   7   9
ENDBRANCH   4   7
ENDBRANCH   1   3
BRANCH   1  19
ATOM     19  C   UNL     1     -12.560   3.472   2.626  1.00  0.00    +0.245 C 
ATOM     20  O   UNL     1     -13.501   4.209   2.945  1.00  0.00    -0.272 OA
BRANCH  19  21
ATOM     21  N   UNL     1     -11.682   3.826   1.628  1.00  0.00    -0.329 N 
ATOM     22  C   UNL     1     -10.685   2.992   0.975  1.00  0.00    +0.120 C 
ATOM     23  C   UNL     1     -11.609   5.207   1.163  1.00  0.00    +0.174 C 
ATOM     24  C   UNL     1      -9.867   3.951   0.120  1.00  0.00    +0.024 C 
ATOM     25  C   UNL     1     -10.830   5.104  -0.148  1.00  0.00    +0.037 C 
BRANCH  23  26
ATOM     26  C   UNL     1     -10.852   6.105   2.168  1.00  0.00    +0.243 C 
ATOM     27  O   UNL     1      -9.632   6.265   2.154  1.00  0.00    -0.273 OA
ATOM     28  N   UNL     1     -11.677   6.765   3.063  1.00  0.00    -0.342 N 
ATOM     29  H   UNL     1     -12.645   6.877   2.783  1.00  0.00    +0.164 HD
BRANCH  28  30
ATOM     30  C   UNL     1     -11.141   7.854   3.884  1.00  0.00    +0.176 C 
BRANCH  30  31
ATOM     31  C   UNL     1      -9.862   8.424   3.253  1.00  0.00    +0.070 C 
BRANCH  31  32
ATOM     32  C   UNL     1      -9.942   9.908   2.981  1.00  0.00    -0.045 A 
ATOM     33  C   UNL     1     -10.630  10.757   3.858  1.00  0.00    +0.004 A 
ATOM     34  C   UNL     1      -9.360  10.448   1.825  1.00  0.00    +0.004 A 
ATOM     35  C   UNL     1     -10.743  12.120   3.579  1.00  0.00    +0.000 A 
ATOM     36  C   UNL     1      -9.474  11.811   1.549  1.00  0.00    +0.000 A 
ATOM     37  C   UNL     1     -10.167  12.645   2.423  1.00  0.00    +0.000 A 
ENDBRANCH  31  32
ENDBRANCH  30  31
BRANCH  30  38
ATOM     38  C   UNL     1     -10.843   7.256   5.281  1.00  0.00    +0.247 C 
ATOM     39  O   UNL     1     -10.355   6.130   5.387  1.00  0.00    -0.272 OA
ATOM     40  N   UNL     1     -11.126   8.123   6.322  1.00  0.00    -0.324 N 
ATOM     41  H   UNL     1     -11.474   9.041   6.063  1.00  0.00    +0.170 HD
BRANCH  40  42
ATOM     42  C   UNL     1     -10.937   7.909   7.701  1.00  0.00    +0.041 A 
ATOM     43  C   UNL     1      -9.799   8.308   8.407  1.00  0.00    +0.033 A 
ATOM     44  C   UNL     1     -11.970   7.252   8.387  1.00  0.00    +0.033 A 
ATOM     45  C   UNL     1      -9.687   8.059   9.780  1.00  0.00    +0.088 A 
ATOM     46  C   UNL     1     -11.870   6.998   9.760  1.00  0.00    +0.088 A 
ATOM     47  C   UNL     1     -10.725   7.405  10.453  1.00  0.00    +0.269 A 
BRANCH  47  48
ATOM     48  N   UNL     1     -10.613   7.144  11.893  1.00  0.00    +0.062 N 
ATOM     49  O   UNL     1     -11.540   6.531  12.441  1.00  0.00    -0.258 OA
ATOM     50  O   UNL     1      -9.600   7.555  12.476  1.00  0.00    -0.258 OA
ENDBRANCH  47  48
ENDBRANCH  40  42
ENDBRANCH  30  38
ENDBRANCH  28  30
ENDBRANCH  23  26
ENDBRANCH  19  21
ENDBRANCH   1  19
TORSDOF 16
ENDMDL
MODEL 7
REMARK VINA RESULT:    -6.608      7.925     15.238
REMARK INTER + INTRA:         -14.788
REMARK INTER:                 -12.321
REMARK INTRA:                  -2.467
REMARK UNBOUND:                -2.193
REMARK SMILES C[C@H](NC(=O)CCC(=O)O)C(=O)N[C@@H](C)C(=O)N1CCC[C@@H]1C(=O)N[C@H](Cc1ccccc1)C(=O)Nc1ccc([N+](=O)[O-])cc1
REMARK SMILES IDX 14 1 15 2 13 3 11 4 12 5 2 7 1 8 3 9 4 10 5 11 6 13 7 14
REMARK SMILES IDX 8 15 9 16 10 17 16 19 17 20 18 21 19 22 22 23 20 24 21 25
REMARK SMILES IDX 23 26 24 27 25 28 26 30 27 31 28 32 29 33 33 34 30 35 32 36
REMARK SMILES IDX 31 37 34 38 35 39 36 40 37 42 38 43 45 44 39 45 44 46 40 47
REMARK SMILES IDX 41 48 42 49 43 50
REMARK H PARENT 13 6 3 12 10 18 25 29 36 41
ROOT
ATOM      1  C   UNL     1     -10.406   2.200   5.326  1.00  0.00    +0.168 C 
ATOM      2  C   UNL     1     -10.584   0.738   4.931  1.00  0.00    +0.041 C 
ENDROOT
BRANCH   1   3
ATOM      3  N   UNL     1     -10.091   2.313   6.746  1.00  0.00    -0.343 N 
ATOM      4  C   UNL     1      -9.142   3.178   7.243  1.00  0.00    +0.242 C 
ATOM      5  O   UNL     1      -8.476   3.910   6.517  1.00  0.00    -0.273 OA
ATOM      6  H   UNL     1     -10.724   1.855   7.400  1.00  0.00    +0.164 HD
BRANCH   4   7
ATOM      7  C   UNL     1      -9.100   3.230   8.784  1.00  0.00    +0.168 C 
ATOM      8  C   UNL     1      -9.908   2.095   9.399  1.00  0.00    +0.041 C 
BRANCH   7   9
ATOM      9  N   UNL     1      -9.578   4.533   9.256  1.00  0.00    -0.345 N 
ATOM     10  C   UNL     1      -8.705   5.552   9.560  1.00  0.00    +0.221 C 
ATOM     11  O   UNL     1      -7.499   5.490   9.356  1.00  0.00    -0.275 OA
ATOM     12  H   UNL     1     -10.524   4.576   9.617  1.00  0.00    +0.164 HD
BRANCH  10  13
ATOM     13  C   UNL     1      -9.396   6.779  10.121  1.00  0.00    +0.111 C 
BRANCH  13  14
ATOM     14  C   UNL     1      -8.396   7.862  10.507  1.00  0.00    +0.132 C 
BRANCH  14  15
ATOM     15  C   UNL     1      -7.816   7.595  11.868  1.00  0.00    +0.303 C 
ATOM     16  O   UNL     1      -8.358   7.773  12.945  1.00  0.00    -0.252 OA
BRANCH  15  17
ATOM     17  O   UNL     1      -6.542   7.162  11.802  1.00  0.00    -0.481 OA
ATOM     18  H   UNL     1      -6.356   7.113  10.841  1.00  0.00    +0.296 HD
ENDBRANCH  15  17
ENDBRANCH  14  15
ENDBRANCH  13  14
ENDBRANCH  10  13
ENDBRANCH   7   9
ENDBRANCH   4   7
ENDBRANCH   1   3
BRANCH   1  19
ATOM     19  C   UNL     1     -11.713   2.983   5.086  1.00  0.00    +0.245 C 
ATOM     20  O   UNL     1     -12.768   2.382   4.850  1.00  0.00    -0.272 OA
BRANCH  19  21
ATOM     21  N   UNL     1     -11.661   4.357   5.104  1.00  0.00    -0.329 N 
ATOM     22  C   UNL     1     -12.421   5.270   5.945  1.00  0.00    +0.120 C 
ATOM     23  C   UNL     1     -10.839   5.079   4.140  1.00  0.00    +0.174 C 
ATOM     24  C   UNL     1     -12.125   6.657   5.388  1.00  0.00    +0.024 C 
ATOM     25  C   UNL     1     -10.763   6.492   4.719  1.00  0.00    +0.037 C 
BRANCH  23  26
ATOM     26  C   UNL     1     -11.496   5.107   2.741  1.00  0.00    +0.243 C 
ATOM     27  O   UNL     1     -12.605   4.632   2.501  1.00  0.00    -0.273 OA
ATOM     28  N   UNL     1     -10.748   5.768   1.782  1.00  0.00    -0.342 N 
ATOM     29  H   UNL     1     -10.061   6.430   2.126  1.00  0.00    +0.164 HD
BRANCH  28  30
ATOM     30  C   UNL     1     -11.355   6.118   0.495  1.00  0.00    +0.176 C 
BRANCH  30  31
ATOM     31  C   UNL     1     -10.523   5.547  -0.663  1.00  0.00    +0.070 C 
BRANCH  31  32
ATOM     32  C   UNL     1     -11.354   4.801  -1.682  1.00  0.00    -0.045 A 
ATOM     33  C   UNL     1     -11.724   5.414  -2.886  1.00  0.00    +0.004 A 
ATOM     34  C   UNL     1     -11.796   3.498  -1.416  1.00  0.00    +0.004 A 
ATOM     35  C   UNL     1     -12.532   4.739  -3.803  1.00  0.00    +0.000 A 
ATOM     36  C   UNL     1     -12.603   2.825  -2.335  1.00  0.00    +0.000 A 
ATOM     37  C   UNL     1     -12.972   3.447  -3.525  1.00  0.00    +0.000 A 
ENDBRANCH  31  32
ENDBRANCH  30  31
BRANCH  30  38
ATOM     38  C   UNL     1     -11.400   7.664   0.427  1.00  0.00    +0.247 C 
ATOM     39  O   UNL     1     -11.917   8.231  -0.536  1.00  0.00    -0.272 OA
ATOM     40  N   UNL     1     -10.868   8.280   1.547  1.00  0.00    -0.324 N 
ATOM     41  H   UNL     1     -10.530   7.667   2.282  1.00  0.00    +0.170 HD
BRANCH  40  42
ATOM     42  C   UNL     1     -10.789   9.659   1.820  1.00  0.00    +0.041 A 
ATOM     43  C   UNL     1     -10.054  10.568   1.054  1.00  0.00    +0.033 A 
ATOM     44  C   UNL     1     -11.502  10.126   2.934  1.00  0.00    +0.033 A 
ATOM     45  C   UNL     1     -10.027  11.927   1.391  1.00  0.00    +0.088 A 
ATOM     46  C   UNL     1     -11.484  11.482   3.280  1.00  0.00    +0.088 A 
ATOM     47  C   UNL     1     -10.744  12.380   2.504  1.00  0.00    +0.269 A 
BRANCH  47  48
ATOM     48  N   UNL     1     -10.720  13.804   2.859  1.00  0.00    +0.062 N 
ATOM     49  O   UNL     1     -11.115  14.122   3.990  1.00  0.00    -0.258 OA
ATOM     50  O   UNL     1     -10.311  14.604   2.006  1.00  0.00    -0.258 OA
ENDBRANCH  47  48
ENDBRANCH  40  42
ENDBRANCH  30  38
ENDBRANCH  28  30
ENDBRANCH  23  26
ENDBRANCH  19  21
ENDBRANCH   1  19
TORSDOF 16
ENDMDL
MODEL 8
REMARK VINA RESULT:    -6.538      8.934     14.652
REMARK INTER + INTRA:         -14.655
REMARK INTER:                 -12.139
REMARK INTRA:                  -2.516
REMARK UNBOUND:                -2.193
REMARK SMILES C[C@H](NC(=O)CCC(=O)O)C(=O)N[C@@H](C)C(=O)N1CCC[C@@H]1C(=O)N[C@H](Cc1ccccc1)C(=O)Nc1ccc([N+](=O)[O-])cc1
REMARK SMILES IDX 14 1 15 2 13 3 11 4 12 5 2 7 1 8 3 9 4 10 5 11 6 13 7 14
REMARK SMILES IDX 8 15 9 16 10 17 16 19 17 20 18 21 19 22 22 23 20 24 21 25
REMARK SMILES IDX 23 26 24 27 25 28 26 30 27 31 28 32 29 33 33 34 30 35 32 36
REMARK SMILES IDX 31 37 34 38 35 39 36 40 37 42 38 43 45 44 39 45 44 46 40 47
REMARK SMILES IDX 41 48 42 49 43 50
REMARK H PARENT 13 6 3 12 10 18 25 29 36 41
ROOT
ATOM      1  C   UNL     1     -12.460   2.192  -1.737  1.00  0.00    +0.168 C 
ATOM      2  C   UNL     1     -12.970   3.545  -2.221  1.00  0.00    +0.041 C 
ENDROOT
BRANCH   1   3
ATOM      3  N   UNL     1     -13.511   1.185  -1.831  1.00  0.00    -0.343 N 
ATOM      4  C   UNL     1     -13.745   0.440  -2.965  1.00  0.00    +0.242 C 
ATOM      5  O   UNL     1     -13.091   0.585  -3.993  1.00  0.00    -0.273 OA
ATOM      6  H   UNL     1     -13.969   0.909  -0.963  1.00  0.00    +0.164 HD
BRANCH   4   7
ATOM      7  C   UNL     1     -14.801  -0.667  -2.770  1.00  0.00    +0.168 C 
ATOM      8  C   UNL     1     -15.129  -1.358  -4.087  1.00  0.00    +0.041 C 
BRANCH   7   9
ATOM      9  N   UNL     1     -16.007  -0.108  -2.153  1.00  0.00    -0.345 N 
ATOM     10  C   UNL     1     -16.387  -0.451  -0.876  1.00  0.00    +0.221 C 
ATOM     11  O   UNL     1     -15.703  -1.143  -0.132  1.00  0.00    -0.275 OA
ATOM     12  H   UNL     1     -16.695   0.305  -2.773  1.00  0.00    +0.164 HD
BRANCH  10  13
ATOM     13  C   UNL     1     -17.712   0.160  -0.465  1.00  0.00    +0.111 C 
BRANCH  13  14
ATOM     14  C   UNL     1     -17.593   0.937   0.840  1.00  0.00    +0.132 C 
BRANCH  14  15
ATOM     15  C   UNL     1     -18.034   0.096   2.006  1.00  0.00    +0.303 C 
ATOM     16  O   UNL     1     -18.506  -1.027   1.964  1.00  0.00    -0.252 OA
BRANCH  15  17
ATOM     17  O   UNL     1     -17.906   0.747   3.178  1.00  0.00    -0.481 OA
ATOM     18  H   UNL     1     -16.990   1.096   3.159  1.00  0.00    +0.296 HD
ENDBRANCH  15  17
ENDBRANCH  14  15
ENDBRANCH  13  14
ENDBRANCH  10  13
ENDBRANCH   7   9
ENDBRANCH   4   7
ENDBRANCH   1   3
BRANCH   1  19
ATOM     19  C   UNL     1     -12.040   2.277  -0.256  1.00  0.00    +0.245 C 
ATOM     20  O   UNL     1     -10.850   2.421   0.050  1.00  0.00    -0.272 OA
BRANCH  19  21
ATOM     21  N   UNL     1     -13.015   2.149   0.705  1.00  0.00    -0.329 N 
ATOM     22  C   UNL     1     -14.225   2.942   0.864  1.00  0.00    +0.120 C 
ATOM     23  C   UNL     1     -12.861   1.188   1.792  1.00  0.00    +0.174 C 
ATOM     24  C   UNL     1     -14.808   2.509   2.203  1.00  0.00    +0.024 C 
ATOM     25  C   UNL     1     -14.265   1.095   2.389  1.00  0.00    +0.037 C 
BRANCH  23  26
ATOM     26  C   UNL     1     -11.857   1.688   2.855  1.00  0.00    +0.243 C 
ATOM     27  O   UNL     1     -11.213   0.940   3.588  1.00  0.00    -0.273 OA
ATOM     28  N   UNL     1     -11.698   3.064   2.873  1.00  0.00    -0.342 N 
ATOM     29  H   UNL     1     -11.959   3.558   2.027  1.00  0.00    +0.164 HD
BRANCH  28  30
ATOM     30  C   UNL     1     -10.590   3.661   3.622  1.00  0.00    +0.176 C 
BRANCH  30  31
ATOM     31  C   UNL     1     -11.079   4.185   4.981  1.00  0.00    +0.070 C 
BRANCH  31  32
ATOM     32  C   UNL     1     -10.544   3.393   6.152  1.00  0.00    -0.045 A 
ATOM     33  C   UNL     1     -11.203   3.418   7.388  1.00  0.00    +0.004 A 
ATOM     34  C   UNL     1      -9.360   2.654   6.025  1.00  0.00    +0.004 A 
ATOM     35  C   UNL     1     -10.680   2.724   8.481  1.00  0.00    +0.000 A 
ATOM     36  C   UNL     1      -8.840   1.961   7.118  1.00  0.00    +0.000 A 
ATOM     37  C   UNL     1      -9.498   1.999   8.346  1.00  0.00    +0.000 A 
ENDBRANCH  31  32
ENDBRANCH  30  31
BRANCH  30  38
ATOM     38  C   UNL     1     -10.036   4.819   2.756  1.00  0.00    +0.247 C 
ATOM     39  O   UNL     1      -8.990   5.389   3.069  1.00  0.00    -0.272 OA
ATOM     40  N   UNL     1     -10.796   5.072   1.626  1.00  0.00    -0.324 N 
ATOM     41  H   UNL     1     -11.604   4.474   1.482  1.00  0.00    +0.170 HD
BRANCH  40  42
ATOM     42  C   UNL     1     -10.554   6.024   0.617  1.00  0.00    +0.041 A 
ATOM     43  C   UNL     1     -10.053   5.712  -0.650  1.00  0.00    +0.033 A 
ATOM     44  C   UNL     1     -10.840   7.362   0.926  1.00  0.00    +0.033 A 
ATOM     45  C   UNL     1      -9.840   6.717  -1.601  1.00  0.00    +0.088 A 
ATOM     46  C   UNL     1     -10.633   8.375  -0.016  1.00  0.00    +0.088 A 
ATOM     47  C   UNL     1     -10.132   8.047  -1.280  1.00  0.00    +0.269 A 
BRANCH  47  48
ATOM     48  N   UNL     1      -9.913   9.104  -2.275  1.00  0.00    +0.062 N 
ATOM     49  O   UNL     1     -10.258  10.256  -1.976  1.00  0.00    -0.258 OA
ATOM     50  O   UNL     1      -9.399   8.781  -3.356  1.00  0.00    -0.258 OA
ENDBRANCH  47  48
ENDBRANCH  40  42
ENDBRANCH  30  38
ENDBRANCH  28  30
ENDBRANCH  23  26
ENDBRANCH  19  21
ENDBRANCH   1  19
TORSDOF 16
ENDMDL
MODEL 9
REMARK VINA RESULT:    -6.512      8.911     12.462
REMARK INTER + INTRA:         -14.605
REMARK INTER:                 -11.880
REMARK INTRA:                  -2.725
REMARK UNBOUND:                -2.193
REMARK SMILES C[C@H](NC(=O)CCC(=O)O)C(=O)N[C@@H](C)C(=O)N1CCC[C@@H]1C(=O)N[C@H](Cc1ccccc1)C(=O)Nc1ccc([N+](=O)[O-])cc1
REMARK SMILES IDX 14 1 15 2 13 3 11 4 12 5 2 7 1 8 3 9 4 10 5 11 6 13 7 14
REMARK SMILES IDX 8 15 9 16 10 17 16 19 17 20 18 21 19 22 22 23 20 24 21 25
REMARK SMILES IDX 23 26 24 27 25 28 26 30 27 31 28 32 29 33 33 34 30 35 32 36
REMARK SMILES IDX 31 37 34 38 35 39 36 40 37 42 38 43 45 44 39 45 44 46 40 47
REMARK SMILES IDX 41 48 42 49 43 50
REMARK H PARENT 13 6 3 12 10 18 25 29 36 41
ROOT
ATOM      1  C   UNL     1     -11.599   5.043  -0.074  1.00  0.00    +0.168 C 
ATOM      2  C   UNL     1     -12.042   4.032  -1.126  1.00  0.00    +0.041 C 
ENDROOT
BRANCH   1   3
ATOM      3  N   UNL     1     -11.055   6.238  -0.709  1.00  0.00    -0.343 N 
ATOM      4  C   UNL     1     -11.509   7.510  -0.439  1.00  0.00    +0.242 C 
ATOM      5  O   UNL     1     -12.424   7.728   0.350  1.00  0.00    -0.273 OA
ATOM      6  H   UNL     1     -10.191   6.131  -1.238  1.00  0.00    +0.164 HD
BRANCH   4   7
ATOM      7  C   UNL     1     -10.674   8.619  -1.111  1.00  0.00    +0.168 C 
ATOM      8  C   UNL     1      -9.821   8.062  -2.242  1.00  0.00    +0.041 C 
BRANCH   7   9
ATOM      9  N   UNL     1      -9.846   9.300  -0.111  1.00  0.00    -0.345 N 
ATOM     10  C   UNL     1     -10.121  10.585   0.296  1.00  0.00    +0.221 C 
ATOM     11  O   UNL     1     -11.120  11.203  -0.049  1.00  0.00    -0.275 OA
ATOM     12  H   UNL     1      -8.922   8.920   0.060  1.00  0.00    +0.164 HD
BRANCH  10  13
ATOM     13  C   UNL     1      -9.090  11.137   1.260  1.00  0.00    +0.111 C 
BRANCH  13  14
ATOM     14  C   UNL     1      -9.145  10.432   2.609  1.00  0.00    +0.132 C 
BRANCH  14  15
ATOM     15  C   UNL     1     -10.216  11.026   3.481  1.00  0.00    +0.303 C 
ATOM     16  O   UNL     1     -10.625  12.174   3.461  1.00  0.00    -0.252 OA
BRANCH  15  17
ATOM     17  O   UNL     1     -10.685  10.144   4.383  1.00  0.00    -0.481 OA
ATOM     18  H   UNL     1     -11.031  10.704   5.109  1.00  0.00    +0.296 HD
ENDBRANCH  15  17
ENDBRANCH  14  15
ENDBRANCH  13  14
ENDBRANCH  10  13
ENDBRANCH   7   9
ENDBRANCH   4   7
ENDBRANCH   1   3
BRANCH   1  19
ATOM     19  C   UNL     1     -10.483   4.445   0.806  1.00  0.00    +0.245 C 
ATOM     20  O   UNL     1     -10.185   3.249   0.713  1.00  0.00    -0.272 OA
BRANCH  19  21
ATOM     21  N   UNL     1      -9.862   5.268   1.717  1.00  0.00    -0.329 N 
ATOM     22  C   UNL     1      -8.438   5.529   1.862  1.00  0.00    +0.120 C 
ATOM     23  C   UNL     1     -10.635   5.932   2.761  1.00  0.00    +0.174 C 
ATOM     24  C   UNL     1      -8.313   6.330   3.152  1.00  0.00    +0.024 C 
ATOM     25  C   UNL     1      -9.678   6.999   3.292  1.00  0.00    +0.037 C 
BRANCH  23  26
ATOM     26  C   UNL     1     -11.027   4.951   3.889  1.00  0.00    +0.243 C 
ATOM     27  O   UNL     1     -11.709   5.270   4.861  1.00  0.00    -0.273 OA
ATOM     28  N   UNL     1     -10.587   3.655   3.683  1.00  0.00    -0.342 N 
ATOM     29  H   UNL     1     -10.373   3.399   2.726  1.00  0.00    +0.164 HD
BRANCH  28  30
ATOM     30  C   UNL     1     -11.110   2.566   4.512  1.00  0.00    +0.176 C 
BRANCH  30  31
ATOM     31  C   UNL     1      -9.978   1.911   5.317  1.00  0.00    +0.070 C 
BRANCH  31  32
ATOM     32  C   UNL     1      -9.640   2.659   6.586  1.00  0.00    -0.045 A 
ATOM     33  C   UNL     1      -8.803   3.782   6.550  1.00  0.00    +0.004 A 
ATOM     34  C   UNL     1     -10.130   2.213   7.822  1.00  0.00    +0.004 A 
ATOM     35  C   UNL     1      -8.454   4.441   7.730  1.00  0.00    +0.000 A 
ATOM     36  C   UNL     1      -9.780   2.874   9.000  1.00  0.00    +0.000 A 
ATOM     37  C   UNL     1      -8.941   3.985   8.954  1.00  0.00    +0.000 A 
ENDBRANCH  31  32
ENDBRANCH  30  31
BRANCH  30  38
ATOM     38  C   UNL     1     -11.760   1.542   3.549  1.00  0.00    +0.247 C 
ATOM     39  O   UNL     1     -11.310   0.399   3.457  1.00  0.00    -0.272 OA
ATOM     40  N   UNL     1     -12.874   2.036   2.892  1.00  0.00    -0.324 N 
ATOM     41  H   UNL     1     -13.149   2.986   3.121  1.00  0.00    +0.170 HD
BRANCH  40  42
ATOM     42  C   UNL     1     -13.712   1.360   1.984  1.00  0.00    +0.041 A 
ATOM     43  C   UNL     1     -14.663   0.406   2.357  1.00  0.00    +0.033 A 
ATOM     44  C   UNL     1     -13.565   1.681   0.627  1.00  0.00    +0.033 A 
ATOM     45  C   UNL     1     -15.461  -0.222   1.393  1.00  0.00    +0.088 A 
ATOM     46  C   UNL     1     -14.356   1.061  -0.347  1.00  0.00    +0.088 A 
ATOM     47  C   UNL     1     -15.304   0.109   0.042  1.00  0.00    +0.269 A 
BRANCH  47  48
ATOM     48  N   UNL     1     -16.141  -0.545  -0.972  1.00  0.00    +0.062 N 
ATOM     49  O   UNL     1     -16.246   0.009  -2.075  1.00  0.00    -0.258 OA
ATOM     50  O   UNL     1     -16.694  -1.610  -0.664  1.00  0.00    -0.258 OA
ENDBRANCH  47  48
ENDBRANCH  40  42
ENDBRANCH  30  38
ENDBRANCH  28  30
ENDBRANCH  23  26
ENDBRANCH  19  21
ENDBRANCH   1  19
TORSDOF 16
ENDMDL
