MODEL 1
REMARK VINA RESULT:    -6.607      0.000      0.000
REMARK INTER + INTRA:         -10.790
REMARK INTER:                  -9.696
REMARK INTRA:                  -1.093
REMARK UNBOUND:                -1.093
REMARK SMILES O=S(=O)(O)OC[C@@H]1O[C@H](O[C@H]2[C@@H]3OC[C@H]2O[C@@H](O)[C@H]3O)[C@@H](O)[C@H](O)[C@@H]1O
REMARK SMILES IDX 9 1 21 2 23 3 25 4 7 5 8 6 10 7 11 8 14 9 15 10 13 11 16 12
REMARK SMILES IDX 12 13 17 14 19 15 18 16 20 18 22 20 24 22 6 24 5 25 2 26
REMARK SMILES IDX 1 27 3 28 4 29 26 31
REMARK H PARENT 18 17 20 19 22 21 24 23 4 30 26 32
ROOT
ATOM      1  C   UNL     1      -2.321 -11.872  -8.761  1.00  0.00    +0.282 C 
ATOM      2  C   UNL     1      -2.876 -11.193  -7.494  1.00  0.00    +0.202 C 
ATOM      3  C   UNL     1      -2.442 -12.009  -6.289  1.00  0.00    +0.179 C 
ATOM      4  C   UNL     1      -0.916 -11.964  -6.171  1.00  0.00    +0.177 C 
ATOM      5  C   UNL     1      -0.204 -11.978  -7.545  1.00  0.00    +0.180 C 
ATOM      6  O   UNL     1      -1.047 -12.492  -8.593  1.00  0.00    -0.341 OA
ENDROOT
BRANCH   1   7
ATOM      7  O   UNL     1      -2.343 -10.910  -9.819  1.00  0.00    -0.341 OA
BRANCH   7   8
ATOM      8  C   UNL     1      -1.980 -11.463 -11.080  1.00  0.00    +0.184 C 
ATOM      9  C   UNL     1      -0.881 -11.380 -13.148  1.00  0.00    +0.195 C 
ATOM     10  C   UNL     1      -0.764 -10.821 -11.730  1.00  0.00    +0.179 C 
ATOM     11  O   UNL     1      -2.302 -11.513 -13.406  1.00  0.00    -0.370 OA
ATOM     12  O   UNL     1      -0.862  -9.387 -11.672  1.00  0.00    -0.342 OA
ATOM     13  C   UNL     1      -2.982 -11.135 -12.181  1.00  0.00    +0.184 C 
ATOM     14  C   UNL     1      -1.988  -8.806 -12.320  1.00  0.00    +0.279 C 
ATOM     15  C   UNL     1      -3.288  -9.631 -12.188  1.00  0.00    +0.202 C 
BRANCH  14  16
ATOM     16  O   UNL     1      -1.669  -8.599 -13.694  1.00  0.00    -0.366 OA
ATOM     17  H   UNL     1      -0.716  -8.791 -13.755  1.00  0.00    +0.213 HD
ENDBRANCH  14  16
BRANCH  15  18
ATOM     18  O   UNL     1      -4.203  -9.314 -13.244  1.00  0.00    -0.385 OA
ATOM     19  H   UNL     1      -3.717  -8.659 -13.790  1.00  0.00    +0.211 HD
ENDBRANCH  15  18
ENDBRANCH   7   8
ENDBRANCH   1   7
BRANCH   2  20
ATOM     20  O   UNL     1      -4.312 -11.122  -7.523  1.00  0.00    -0.385 OA
ATOM     21  H   UNL     1      -4.606 -11.209  -6.595  1.00  0.00    +0.211 HD
ENDBRANCH   2  20
BRANCH   3  22
ATOM     22  O   UNL     1      -3.026 -11.479  -5.087  1.00  0.00    -0.387 OA
ATOM     23  H   UNL     1      -3.132 -10.520  -5.262  1.00  0.00    +0.211 HD
ENDBRANCH   3  22
BRANCH   5  24
ATOM     24  C   UNL     1       0.467 -10.652  -7.947  1.00  0.00    +0.220 C 
BRANCH  24  25
ATOM     25  O   UNL     1       1.554 -10.407  -7.058  1.00  0.00    -0.245 OA
BRANCH  25  26
ATOM     26  S   UNL     1       2.952 -11.183  -7.339  1.00  0.00    +0.397 S 
ATOM     27  O   UNL     1       2.985 -11.661  -8.703  1.00  0.00    -0.169 OA
ATOM     28  O   UNL     1       3.226 -12.047  -6.214  1.00  0.00    -0.169 OA
BRANCH  26  29
ATOM     29  O   UNL     1       4.026  -9.991  -7.212  1.00  0.00    -0.264 OA
ATOM     30  H   UNL     1       4.886 -10.405  -6.995  1.00  0.00    +0.236 HD
ENDBRANCH  26  29
ENDBRANCH  25  26
ENDBRANCH  24  25
ENDBRANCH   5  24
BRANCH   4  31
ATOM     31  O   UNL     1      -0.539 -10.818  -5.398  1.00  0.00    -0.387 OA
ATOM     32  H   UNL     1      -0.954 -10.961  -4.518  1.00  0.00    +0.211 HD
ENDBRANCH   4  31
TORSDOF 11
ENDMDL
MODEL 2
REMARK VINA RESULT:    -6.602      2.298      2.955
REMARK INTER + INTRA:         -10.783
REMARK INTER:                  -9.136
REMARK INTRA:                  -1.647
REMARK UNBOUND:                -1.093
REMARK SMILES O=S(=O)(O)OC[C@@H]1O[C@H](O[C@H]2[C@@H]3OC[C@H]2O[C@@H](O)[C@H]3O)[C@@H](O)[C@H](O)[C@@H]1O
REMARK SMILES IDX 9 1 21 2 23 3 25 4 7 5 8 6 10 7 11 8 14 9 15 10 13 11 16 12
REMARK SMILES IDX 12 13 17 14 19 15 18 16 20 18 22 20 24 22 6 24 5 25 2 26
REMARK SMILES IDX 1 27 3 28 4 29 26 31
REMARK H PARENT 18 17 20 19 22 21 24 23 4 30 26 32
ROOT
ATOM      1  C   UNL     1      -2.233 -12.787  -9.838  1.00  0.00    +0.282 C 
ATOM      2  C   UNL     1      -3.470 -13.427  -9.176  1.00  0.00    +0.202 C 
ATOM      3  C   UNL     1      -3.009 -14.185  -7.944  1.00  0.00    +0.179 C 
ATOM      4  C   UNL     1      -2.436 -13.195  -6.925  1.00  0.00    +0.177 C 
ATOM      5  C   UNL     1      -1.654 -12.035  -7.586  1.00  0.00    +0.180 C 
ATOM      6  O   UNL     1      -1.227 -12.354  -8.924  1.00  0.00    -0.341 OA
ENDROOT
BRANCH   1   7
ATOM      7  O   UNL     1      -2.690 -11.746 -10.705  1.00  0.00    -0.341 OA
BRANCH   7   8
ATOM      8  C   UNL     1      -2.478 -12.038 -12.083  1.00  0.00    +0.184 C 
ATOM      9  C   UNL     1      -1.437 -11.670 -14.150  1.00  0.00    +0.195 C 
ATOM     10  C   UNL     1      -1.174 -11.502 -12.653  1.00  0.00    +0.179 C 
ATOM     11  O   UNL     1      -2.862 -11.464 -14.328  1.00  0.00    -0.370 OA
ATOM     12  O   UNL     1      -0.979 -10.132 -12.259  1.00  0.00    -0.342 OA
ATOM     13  C   UNL     1      -3.420 -11.270 -13.003  1.00  0.00    +0.184 C 
ATOM     14  C   UNL     1      -1.980  -9.208 -12.672  1.00  0.00    +0.279 C 
ATOM     15  C   UNL     1      -3.416  -9.779 -12.640  1.00  0.00    +0.202 C 
BRANCH  14  16
ATOM     16  O   UNL     1      -1.661  -8.742 -13.980  1.00  0.00    -0.366 OA
ATOM     17  H   UNL     1      -2.239  -7.970 -14.112  1.00  0.00    +0.213 HD
ENDBRANCH  14  16
BRANCH  15  18
ATOM     18  O   UNL     1      -4.275  -9.048 -13.526  1.00  0.00    -0.385 OA
ATOM     19  H   UNL     1      -3.714  -8.307 -13.841  1.00  0.00    +0.211 HD
ENDBRANCH  15  18
ENDBRANCH   7   8
ENDBRANCH   1   7
BRANCH   2  20
ATOM     20  O   UNL     1      -4.132 -14.337 -10.071  1.00  0.00    -0.385 OA
ATOM     21  H   UNL     1      -3.551 -14.419 -10.853  1.00  0.00    +0.211 HD
ENDBRANCH   2  20
BRANCH   3  22
ATOM     22  O   UNL     1      -4.110 -14.893  -7.349  1.00  0.00    -0.387 OA
ATOM     23  H   UNL     1      -4.185 -14.523  -6.444  1.00  0.00    +0.211 HD
ENDBRANCH   3  22
BRANCH   5  24
ATOM     24  C   UNL     1      -2.344 -10.661  -7.517  1.00  0.00    +0.220 C 
BRANCH  24  25
ATOM     25  O   UNL     1      -1.342  -9.658  -7.364  1.00  0.00    -0.245 OA
BRANCH  25  26
ATOM     26  S   UNL     1      -1.043  -8.687  -8.630  1.00  0.00    +0.397 S 
ATOM     27  O   UNL     1      -0.066  -7.687  -8.265  1.00  0.00    -0.169 OA
ATOM     28  O   UNL     1      -2.304  -8.343  -9.246  1.00  0.00    -0.169 OA
BRANCH  26  29
ATOM     29  O   UNL     1      -0.342  -9.699  -9.669  1.00  0.00    -0.264 OA
ATOM     30  H   UNL     1      -0.926 -10.481  -9.742  1.00  0.00    +0.236 HD
ENDBRANCH  26  29
ENDBRANCH  25  26
ENDBRANCH  24  25
ENDBRANCH   5  24
BRANCH   4  31
ATOM     31  O   UNL     1      -3.498 -12.707  -6.098  1.00  0.00    -0.387 OA
ATOM     32  H   UNL     1      -3.485 -11.731  -6.222  1.00  0.00    +0.211 HD
ENDBRANCH   4  31
TORSDOF 11
ENDMDL
MODEL 3
REMARK VINA RESULT:    -6.411      2.977      6.190
REMARK INTER + INTRA:         -10.503
REMARK INTER:                  -9.501
REMARK INTRA:                  -1.002
REMARK UNBOUND:                -1.093
REMARK SMILES O=S(=O)(O)OC[C@@H]1O[C@H](O[C@H]2[C@@H]3OC[C@H]2O[C@@H](O)[C@H]3O)[C@@H](O)[C@H](O)[C@@H]1O
REMARK SMILES IDX 9 1 21 2 23 3 25 4 7 5 8 6 10 7 11 8 14 9 15 10 13 11 16 12
REMARK SMILES IDX 12 13 17 14 19 15 18 16 20 18 22 20 24 22 6 24 5 25 2 26
REMARK SMILES IDX 1 27 3 28 4 29 26 31
REMARK H PARENT 18 17 20 19 22 21 24 23 4 30 26 32
ROOT
ATOM      1  C   UNL     1      -0.766 -10.638  -9.057  1.00  0.00    +0.282 C 
ATOM      2  C   UNL     1      -1.347  -9.666  -8.013  1.00  0.00    +0.202 C 
ATOM      3  C   UNL     1      -0.712  -8.303  -8.230  1.00  0.00    +0.179 C 
ATOM      4  C   UNL     1      -1.129  -7.764  -9.602  1.00  0.00    +0.177 C 
ATOM      5  C   UNL     1      -1.225  -8.870 -10.680  1.00  0.00    +0.180 C 
ATOM      6  O   UNL     1      -0.478 -10.049 -10.324  1.00  0.00    -0.341 OA
ENDROOT
BRANCH   1   7
ATOM      7  O   UNL     1      -1.647 -11.761  -9.147  1.00  0.00    -0.341 OA
BRANCH   7   8
ATOM      8  C   UNL     1      -0.958 -12.998  -9.302  1.00  0.00    +0.184 C 
ATOM      9  C   UNL     1      -0.892 -15.333  -9.494  1.00  0.00    +0.195 C 
ATOM     10  C   UNL     1      -1.823 -14.153  -9.779  1.00  0.00    +0.179 C 
ATOM     11  O   UNL     1      -0.135 -14.963  -8.313  1.00  0.00    -0.370 OA
ATOM     12  O   UNL     1      -3.052 -14.203  -9.032  1.00  0.00    -0.342 OA
ATOM     13  C   UNL     1      -0.535 -13.610  -7.971  1.00  0.00    +0.184 C 
ATOM     14  C   UNL     1      -2.927 -14.380  -7.625  1.00  0.00    +0.279 C 
ATOM     15  C   UNL     1      -1.723 -13.639  -7.000  1.00  0.00    +0.202 C 
BRANCH  14  16
ATOM     16  O   UNL     1      -2.850 -15.775  -7.344  1.00  0.00    -0.366 OA
ATOM     17  H   UNL     1      -2.726 -15.824  -6.379  1.00  0.00    +0.213 HD
ENDBRANCH  14  16
BRANCH  15  18
ATOM     18  O   UNL     1      -1.338 -14.246  -5.760  1.00  0.00    -0.385 OA
ATOM     19  H   UNL     1      -0.773 -13.568  -5.330  1.00  0.00    +0.211 HD
ENDBRANCH  15  18
ENDBRANCH   7   8
ENDBRANCH   1   7
BRANCH   2  20
ATOM     20  O   UNL     1      -1.070 -10.107  -6.673  1.00  0.00    -0.385 OA
ATOM     21  H   UNL     1      -0.304  -9.582  -6.368  1.00  0.00    +0.211 HD
ENDBRANCH   2  20
BRANCH   3  22
ATOM     22  O   UNL     1      -1.139  -7.383  -7.211  1.00  0.00    -0.387 OA
ATOM     23  H   UNL     1      -0.557  -7.571  -6.444  1.00  0.00    +0.211 HD
ENDBRANCH   3  22
BRANCH   5  24
ATOM     24  C   UNL     1      -2.654  -9.213 -11.136  1.00  0.00    +0.220 C 
BRANCH  24  25
ATOM     25  O   UNL     1      -2.880  -8.609 -12.408  1.00  0.00    -0.245 OA
BRANCH  25  26
ATOM     26  S   UNL     1      -2.614  -9.510 -13.732  1.00  0.00    +0.397 S 
ATOM     27  O   UNL     1      -3.601  -9.205 -14.743  1.00  0.00    -0.169 OA
ATOM     28  O   UNL     1      -2.336 -10.865 -13.311  1.00  0.00    -0.169 OA
BRANCH  26  29
ATOM     29  O   UNL     1      -1.198  -8.942 -14.244  1.00  0.00    -0.264 OA
ATOM     30  H   UNL     1      -0.805  -9.630 -14.818  1.00  0.00    +0.236 HD
ENDBRANCH  26  29
ENDBRANCH  25  26
ENDBRANCH  24  25
ENDBRANCH   5  24
BRANCH   4  31
ATOM     31  O   UNL     1      -2.364  -7.052  -9.471  1.00  0.00    -0.387 OA
ATOM     32  H   UNL     1      -2.264  -6.525  -8.646  1.00  0.00    +0.211 HD
ENDBRANCH   4  31
TORSDOF 11
ENDMDL
MODEL 4
REMARK VINA RESULT:    -6.192      2.059      3.415
REMARK INTER + INTRA:         -10.182
REMARK INTER:                  -9.009
REMARK INTRA:                  -1.173
REMARK UNBOUND:                -1.093
REMARK SMILES O=S(=O)(O)OC[C@@H]1O[C@H](O[C@H]2[C@@H]3OC[C@H]2O[C@@H](O)[C@H]3O)[C@@H](O)[C@H](O)[C@@H]1O
REMARK SMILES IDX 9 1 21 2 23 3 25 4 7 5 8 6 10 7 11 8 14 9 15 10 13 11 16 12
REMARK SMILES IDX 12 13 17 14 19 15 18 16 20 18 22 20 24 22 6 24 5 25 2 26
REMARK SMILES IDX 1 27 3 28 4 29 26 31
REMARK H PARENT 18 17 20 19 22 21 24 23 4 30 26 32
ROOT
ATOM      1  C   UNL     1      -2.339 -10.193  -9.947  1.00  0.00    +0.282 C 
ATOM      2  C   UNL     1      -1.028  -9.458  -9.607  1.00  0.00    +0.202 C 
ATOM      3  C   UNL     1      -1.237  -8.688  -8.315  1.00  0.00    +0.179 C 
ATOM      4  C   UNL     1      -1.489  -9.675  -7.172  1.00  0.00    +0.177 C 
ATOM      5  C   UNL     1      -2.326 -10.901  -7.609  1.00  0.00    +0.180 C 
ATOM      6  O   UNL     1      -3.073 -10.654  -8.815  1.00  0.00    -0.341 OA
ENDROOT
BRANCH   1   7
ATOM      7  O   UNL     1      -2.029 -11.233 -10.878  1.00  0.00    -0.341 OA
BRANCH   7   8
ATOM      8  C   UNL     1      -2.948 -11.299 -11.964  1.00  0.00    +0.184 C 
ATOM      9  C   UNL     1      -3.621 -12.060 -14.076  1.00  0.00    +0.195 C 
ATOM     10  C   UNL     1      -2.753 -12.488 -12.892  1.00  0.00    +0.179 C 
ATOM     11  O   UNL     1      -3.527 -10.614 -14.135  1.00  0.00    -0.370 OA
ATOM     12  O   UNL     1      -1.362 -12.638 -13.230  1.00  0.00    -0.342 OA
ATOM     13  C   UNL     1      -2.719 -10.205 -13.001  1.00  0.00    +0.184 C 
ATOM     14  C   UNL     1      -0.752 -11.535 -13.893  1.00  0.00    +0.279 C 
ATOM     15  C   UNL     1      -1.237 -10.155 -13.398  1.00  0.00    +0.202 C 
BRANCH  14  16
ATOM     16  O   UNL     1      -0.973 -11.666 -15.295  1.00  0.00    -0.366 OA
ATOM     17  H   UNL     1      -1.939 -11.756 -15.383  1.00  0.00    +0.213 HD
ENDBRANCH  14  16
BRANCH  15  18
ATOM     18  O   UNL     1      -1.024  -9.150 -14.398  1.00  0.00    -0.385 OA
ATOM     19  H   UNL     1      -1.417  -9.538 -15.210  1.00  0.00    +0.211 HD
ENDBRANCH  15  18
ENDBRANCH   7   8
ENDBRANCH   1   7
BRANCH   2  20
ATOM     20  O   UNL     1      -0.654  -8.541 -10.649  1.00  0.00    -0.385 OA
ATOM     21  H   UNL     1      -0.539  -7.672 -10.217  1.00  0.00    +0.211 HD
ENDBRANCH   2  20
BRANCH   3  22
ATOM     22  O   UNL     1      -0.076  -7.896  -8.010  1.00  0.00    -0.387 OA
ATOM     23  H   UNL     1       0.148  -7.446  -8.851  1.00  0.00    +0.211 HD
ENDBRANCH   3  22
BRANCH   5  24
ATOM     24  C   UNL     1      -1.550 -12.229  -7.678  1.00  0.00    +0.220 C 
BRANCH  24  25
ATOM     25  O   UNL     1      -1.719 -12.917  -6.441  1.00  0.00    -0.245 OA
BRANCH  25  26
ATOM     26  S   UNL     1      -0.430 -13.042  -5.461  1.00  0.00    +0.397 S 
ATOM     27  O   UNL     1       0.764 -12.628  -6.162  1.00  0.00    -0.169 OA
ATOM     28  O   UNL     1      -0.514 -14.302  -4.759  1.00  0.00    -0.169 OA
BRANCH  26  29
ATOM     29  O   UNL     1      -0.752 -11.928  -4.344  1.00  0.00    -0.264 OA
ATOM     30  H   UNL     1      -0.524 -12.320  -3.477  1.00  0.00    +0.236 HD
ENDBRANCH  26  29
ENDBRANCH  25  26
ENDBRANCH  24  25
ENDBRANCH   5  24
BRANCH   4  31
ATOM     31  O   UNL     1      -0.233 -10.071  -6.609  1.00  0.00    -0.387 OA
ATOM     32  H   UNL     1      -0.040  -9.393  -5.924  1.00  0.00    +0.211 HD
ENDBRANCH   4  31
TORSDOF 11
ENDMDL
MODEL 5
REMARK VINA RESULT:    -6.124      2.591      6.549
REMARK INTER + INTRA:         -10.082
REMARK INTER:                  -9.020
REMARK INTRA:                  -1.062
REMARK UNBOUND:                -1.093
REMARK SMILES O=S(=O)(O)OC[C@@H]1O[C@H](O[C@H]2[C@@H]3OC[C@H]2O[C@@H](O)[C@H]3O)[C@@H](O)[C@H](O)[C@@H]1O
REMARK SMILES IDX 9 1 21 2 23 3 25 4 7 5 8 6 10 7 11 8 14 9 15 10 13 11 16 12
REMARK SMILES IDX 12 13 17 14 19 15 18 16 20 18 22 20 24 22 6 24 5 25 2 26
REMARK SMILES IDX 1 27 3 28 4 29 26 31
REMARK H PARENT 18 17 20 19 22 21 24 23 4 30 26 32
ROOT
ATOM      1  C   UNL     1      -0.145 -10.478  -7.657  1.00  0.00    +0.282 C 
ATOM      2  C   UNL     1      -1.275 -11.521  -7.754  1.00  0.00    +0.202 C 
ATOM      3  C   UNL     1      -2.595 -10.780  -7.874  1.00  0.00    +0.179 C 
ATOM      4  C   UNL     1      -2.617  -9.994  -9.188  1.00  0.00    +0.177 C 
ATOM      5  C   UNL     1      -1.238  -9.397  -9.556  1.00  0.00    +0.180 C 
ATOM      6  O   UNL     1      -0.365  -9.290  -8.416  1.00  0.00    -0.341 OA
ENDROOT
BRANCH   1   7
ATOM      7  O   UNL     1       1.085 -11.133  -7.982  1.00  0.00    -0.341 OA
BRANCH   7   8
ATOM      8  C   UNL     1       1.922 -11.336  -6.848  1.00  0.00    +0.184 C 
ATOM      9  C   UNL     1       3.982 -11.223  -5.737  1.00  0.00    +0.195 C 
ATOM     10  C   UNL     1       3.204 -10.518  -6.848  1.00  0.00    +0.179 C 
ATOM     11  O   UNL     1       3.588 -12.618  -5.800  1.00  0.00    -0.370 OA
ATOM     12  O   UNL     1       3.848 -10.595  -8.133  1.00  0.00    -0.342 OA
ATOM     13  C   UNL     1       2.573 -12.714  -6.832  1.00  0.00    +0.184 C 
ATOM     14  C   UNL     1       4.229 -11.895  -8.570  1.00  0.00    +0.279 C 
ATOM     15  C   UNL     1       3.225 -13.007  -8.190  1.00  0.00    +0.202 C 
BRANCH  14  16
ATOM     16  O   UNL     1       5.521 -12.193  -8.048  1.00  0.00    -0.366 OA
ATOM     17  H   UNL     1       5.369 -12.360  -7.101  1.00  0.00    +0.213 HD
ENDBRANCH  14  16
BRANCH  15  18
ATOM     18  O   UNL     1       3.868 -14.288  -8.168  1.00  0.00    -0.385 OA
ATOM     19  H   UNL     1       3.149 -14.910  -7.923  1.00  0.00    +0.211 HD
ENDBRANCH  15  18
ENDBRANCH   7   8
ENDBRANCH   1   7
BRANCH   2  20
ATOM     20  O   UNL     1      -1.311 -12.366  -6.592  1.00  0.00    -0.385 OA
ATOM     21  H   UNL     1      -1.616 -13.241  -6.903  1.00  0.00    +0.211 HD
ENDBRANCH   2  20
BRANCH   3  22
ATOM     22  O   UNL     1      -3.694 -11.707  -7.859  1.00  0.00    -0.387 OA
ATOM     23  H   UNL     1      -4.475 -11.174  -8.119  1.00  0.00    +0.211 HD
ENDBRANCH   3  22
BRANCH   5  24
ATOM     24  C   UNL     1      -0.537 -10.062 -10.755  1.00  0.00    +0.220 C 
BRANCH  24  25
ATOM     25  O   UNL     1      -0.678  -9.213 -11.891  1.00  0.00    -0.245 OA
BRANCH  25  26
ATOM     26  S   UNL     1      -1.825  -9.586 -12.978  1.00  0.00    +0.397 S 
ATOM     27  O   UNL     1      -3.004  -8.782 -12.747  1.00  0.00    -0.169 OA
ATOM     28  O   UNL     1      -1.885 -11.025 -13.098  1.00  0.00    -0.169 OA
BRANCH  26  29
ATOM     29  O   UNL     1      -1.154  -9.088 -14.354  1.00  0.00    -0.264 OA
ATOM     30  H   UNL     1      -1.331  -8.128 -14.426  1.00  0.00    +0.236 HD
ENDBRANCH  26  29
ENDBRANCH  25  26
ENDBRANCH  24  25
ENDBRANCH   5  24
BRANCH   4  31
ATOM     31  O   UNL     1      -3.117 -10.839 -10.231  1.00  0.00    -0.387 OA
ATOM     32  H   UNL     1      -3.760 -11.435  -9.786  1.00  0.00    +0.211 HD
ENDBRANCH   4  31
TORSDOF 11
ENDMDL
MODEL 6
REMARK VINA RESULT:    -6.076      2.600      6.271
REMARK INTER + INTRA:         -10.010
REMARK INTER:                  -8.958
REMARK INTRA:                  -1.052
REMARK UNBOUND:                -1.093
REMARK SMILES O=S(=O)(O)OC[C@@H]1O[C@H](O[C@H]2[C@@H]3OC[C@H]2O[C@@H](O)[C@H]3O)[C@@H](O)[C@H](O)[C@@H]1O
REMARK SMILES IDX 9 1 21 2 23 3 25 4 7 5 8 6 10 7 11 8 14 9 15 10 13 11 16 12
REMARK SMILES IDX 12 13 17 14 19 15 18 16 20 18 22 20 24 22 6 24 5 25 2 26
REMARK SMILES IDX 1 27 3 28 4 29 26 31
REMARK H PARENT 18 17 20 19 22 21 24 23 4 30 26 32
ROOT
ATOM      1  C   UNL     1      -0.081 -11.604  -6.232  1.00  0.00    +0.282 C 
ATOM      2  C   UNL     1      -1.283 -12.567  -6.182  1.00  0.00    +0.202 C 
ATOM      3  C   UNL     1      -2.529 -11.755  -5.873  1.00  0.00    +0.179 C 
ATOM      4  C   UNL     1      -2.799 -10.785  -7.027  1.00  0.00    +0.177 C 
ATOM      5  C   UNL     1      -1.503 -10.206  -7.643  1.00  0.00    +0.180 C 
ATOM      6  O   UNL     1      -0.377 -10.309  -6.751  1.00  0.00    -0.341 OA
ENDROOT
BRANCH   1   7
ATOM      7  O   UNL     1       0.978 -12.262  -6.933  1.00  0.00    -0.341 OA
BRANCH   7   8
ATOM      8  C   UNL     1       2.174 -12.361  -6.168  1.00  0.00    +0.184 C 
ATOM      9  C   UNL     1       4.359 -11.706  -5.629  1.00  0.00    +0.195 C 
ATOM     10  C   UNL     1       3.074 -11.137  -6.232  1.00  0.00    +0.179 C 
ATOM     11  O   UNL     1       4.399 -13.101  -6.025  1.00  0.00    -0.370 OA
ATOM     12  O   UNL     1       3.230 -10.699  -7.594  1.00  0.00    -0.342 OA
ATOM     13  C   UNL     1       3.168 -13.362  -6.747  1.00  0.00    +0.184 C 
ATOM     14  C   UNL     1       3.803 -11.639  -8.497  1.00  0.00    +0.279 C 
ATOM     15  C   UNL     1       3.368 -13.100  -8.246  1.00  0.00    +0.202 C 
BRANCH  14  16
ATOM     16  O   UNL     1       5.222 -11.526  -8.435  1.00  0.00    -0.366 OA
ATOM     17  H   UNL     1       5.451 -11.812  -7.533  1.00  0.00    +0.213 HD
ENDBRANCH  14  16
BRANCH  15  18
ATOM     18  O   UNL     1       4.328 -14.018  -8.787  1.00  0.00    -0.385 OA
ATOM     19  H   UNL     1       5.194 -13.628  -8.538  1.00  0.00    +0.211 HD
ENDBRANCH  15  18
ENDBRANCH   7   8
ENDBRANCH   1   7
BRANCH   2  20
ATOM     20  O   UNL     1      -1.110 -13.571  -5.167  1.00  0.00    -0.385 OA
ATOM     21  H   UNL     1      -0.167 -13.825  -5.196  1.00  0.00    +0.211 HD
ENDBRANCH   2  20
BRANCH   3  22
ATOM     22  O   UNL     1      -3.664 -12.621  -5.708  1.00  0.00    -0.387 OA
ATOM     23  H   UNL     1      -3.526 -13.051  -4.838  1.00  0.00    +0.211 HD
ENDBRANCH   3  22
BRANCH   5  24
ATOM     24  C   UNL     1      -1.165 -10.721  -9.054  1.00  0.00    +0.220 C 
BRANCH  24  25
ATOM     25  O   UNL     1      -2.156 -10.243  -9.960  1.00  0.00    -0.245 OA
BRANCH  25  26
ATOM     26  S   UNL     1      -1.860  -8.852 -10.743  1.00  0.00    +0.397 S 
ATOM     27  O   UNL     1      -2.481  -8.878 -12.047  1.00  0.00    -0.169 OA
ATOM     28  O   UNL     1      -0.466  -8.517 -10.560  1.00  0.00    -0.169 OA
BRANCH  26  29
ATOM     29  O   UNL     1      -2.660  -7.785  -9.841  1.00  0.00    -0.264 OA
ATOM     30  H   UNL     1      -3.445  -8.247  -9.482  1.00  0.00    +0.236 HD
ENDBRANCH  26  29
ENDBRANCH  25  26
ENDBRANCH  24  25
ENDBRANCH   5  24
BRANCH   4  31
ATOM     31  O   UNL     1      -3.600 -11.442  -8.015  1.00  0.00    -0.387 OA
ATOM     32  H   UNL     1      -2.956 -11.781  -8.676  1.00  0.00    +0.211 HD
ENDBRANCH   4  31
TORSDOF 11
ENDMDL
MODEL 7
REMARK VINA RESULT:    -5.871      5.272      9.955
REMARK INTER + INTRA:          -9.710
REMARK INTER:                  -8.593
REMARK INTRA:                  -1.117
REMARK UNBOUND:                -1.093
REMARK SMILES O=S(=O)(O)OC[C@@H]1O[C@H](O[C@H]2[C@@H]3OC[C@H]2O[C@@H](O)[C@H]3O)[C@@H](O)[C@H](O)[C@@H]1O
REMARK SMILES IDX 9 1 21 2 23 3 25 4 7 5 8 6 10 7 11 8 14 9 15 10 13 11 16 12
REMARK SMILES IDX 12 13 17 14 19 15 18 16 20 18 22 20 24 22 6 24 5 25 2 26
REMARK SMILES IDX 1 27 3 28 4 29 26 31
REMARK H PARENT 18 17 20 19 22 21 24 23 4 30 26 32
ROOT
ATOM      1  C   UNL     1       5.404 -14.275  -6.478  1.00  0.00    +0.282 C 
ATOM      2  C   UNL     1       6.248 -13.051  -6.886  1.00  0.00    +0.202 C 
ATOM      3  C   UNL     1       5.868 -12.665  -8.305  1.00  0.00    +0.179 C 
ATOM      4  C   UNL     1       4.406 -12.211  -8.332  1.00  0.00    +0.177 C 
ATOM      5  C   UNL     1       3.505 -13.024  -7.372  1.00  0.00    +0.180 C 
ATOM      6  O   UNL     1       4.085 -14.295  -7.020  1.00  0.00    -0.341 OA
ENDROOT
BRANCH   1   7
ATOM      7  O   UNL     1       5.428 -14.367  -5.051  1.00  0.00    -0.341 OA
BRANCH   7   8
ATOM      8  C   UNL     1       4.949 -15.617  -4.567  1.00  0.00    +0.184 C 
ATOM      9  C   UNL     1       3.624 -16.928  -3.146  1.00  0.00    +0.195 C 
ATOM     10  C   UNL     1       3.643 -15.541  -3.791  1.00  0.00    +0.179 C 
ATOM     11  O   UNL     1       5.012 -17.270  -2.900  1.00  0.00    -0.370 OA
ATOM     12  O   UNL     1       3.690 -14.468  -2.833  1.00  0.00    -0.342 OA
ATOM     13  C   UNL     1       5.808 -16.186  -3.444  1.00  0.00    +0.184 C 
ATOM     14  C   UNL     1       4.714 -14.548  -1.847  1.00  0.00    +0.279 C 
ATOM     15  C   UNL     1       6.052 -15.117  -2.370  1.00  0.00    +0.202 C 
BRANCH  14  16
ATOM     16  O   UNL     1       4.236 -15.329  -0.754  1.00  0.00    -0.366 OA
ATOM     17  H   UNL     1       4.696 -14.967   0.024  1.00  0.00    +0.213 HD
ENDBRANCH  14  16
BRANCH  15  18
ATOM     18  O   UNL     1       6.831 -15.659  -1.296  1.00  0.00    -0.385 OA
ATOM     19  H   UNL     1       6.963 -16.598  -1.550  1.00  0.00    +0.211 HD
ENDBRANCH  15  18
ENDBRANCH   7   8
ENDBRANCH   1   7
BRANCH   2  20
ATOM     20  O   UNL     1       7.655 -13.343  -6.836  1.00  0.00    -0.385 OA
ATOM     21  H   UNL     1       7.804 -13.814  -5.993  1.00  0.00    +0.211 HD
ENDBRANCH   2  20
BRANCH   3  22
ATOM     22  O   UNL     1       6.705 -11.594  -8.775  1.00  0.00    -0.387 OA
ATOM     23  H   UNL     1       6.716 -11.695  -9.750  1.00  0.00    +0.211 HD
ENDBRANCH   3  22
BRANCH   5  24
ATOM     24  C   UNL     1       3.012 -12.256  -6.133  1.00  0.00    +0.220 C 
BRANCH  24  25
ATOM     25  O   UNL     1       1.606 -12.458  -6.004  1.00  0.00    -0.245 OA
BRANCH  25  26
ATOM     26  S   UNL     1       0.619 -11.398  -6.738  1.00  0.00    +0.397 S 
ATOM     27  O   UNL     1      -0.390 -12.105  -7.494  1.00  0.00    -0.169 OA
ATOM     28  O   UNL     1       1.428 -10.354  -7.323  1.00  0.00    -0.169 OA
BRANCH  26  29
ATOM     29  O   UNL     1      -0.110 -10.699  -5.484  1.00  0.00    -0.264 OA
ATOM     30  H   UNL     1      -0.223  -9.754  -5.711  1.00  0.00    +0.236 HD
ENDBRANCH  26  29
ENDBRANCH  25  26
ENDBRANCH  24  25
ENDBRANCH   5  24
BRANCH   4  31
ATOM     31  O   UNL     1       4.344 -10.809  -8.047  1.00  0.00    -0.387 OA
ATOM     32  H   UNL     1       5.189 -10.610  -7.583  1.00  0.00    +0.211 HD
ENDBRANCH   4  31
TORSDOF 11
ENDMDL
MODEL 8
REMARK VINA RESULT:    -5.866     18.728     20.794
REMARK INTER + INTRA:          -9.703
REMARK INTER:                  -8.351
REMARK INTRA:                  -1.352
REMARK UNBOUND:                -1.093
REMARK SMILES O=S(=O)(O)OC[C@@H]1O[C@H](O[C@H]2[C@@H]3OC[C@H]2O[C@@H](O)[C@H]3O)[C@@H](O)[C@H](O)[C@@H]1O
REMARK SMILES IDX 9 1 21 2 23 3 25 4 7 5 8 6 10 7 11 8 14 9 15 10 13 11 16 12
REMARK SMILES IDX 12 13 17 14 19 15 18 16 20 18 22 20 24 22 6 24 5 25 2 26
REMARK SMILES IDX 1 27 3 28 4 29 26 31
REMARK H PARENT 18 17 20 19 22 21 24 23 4 30 26 32
ROOT
ATOM      1  C   UNL     1      -7.664   8.265 -14.222  1.00  0.00    +0.282 C 
ATOM      2  C   UNL     1      -7.411   7.194 -13.143  1.00  0.00    +0.202 C 
ATOM      3  C   UNL     1      -8.750   6.799 -12.545  1.00  0.00    +0.179 C 
ATOM      4  C   UNL     1      -9.609   6.132 -13.623  1.00  0.00    +0.177 C 
ATOM      5  C   UNL     1      -9.426   6.772 -15.020  1.00  0.00    +0.180 C 
ATOM      6  O   UNL     1      -8.882   8.104 -14.946  1.00  0.00    -0.341 OA
ENDROOT
BRANCH   1   7
ATOM      7  O   UNL     1      -6.510   8.317 -15.067  1.00  0.00    -0.341 OA
BRANCH   7   8
ATOM      8  C   UNL     1      -6.019   9.639 -15.256  1.00  0.00    +0.184 C 
ATOM      9  C   UNL     1      -4.481  11.184 -16.119  1.00  0.00    +0.195 C 
ATOM     10  C   UNL     1      -5.058   9.800 -16.424  1.00  0.00    +0.179 C 
ATOM     11  O   UNL     1      -4.456  11.292 -14.672  1.00  0.00    -0.370 OA
ATOM     12  O   UNL     1      -4.069   8.755 -16.408  1.00  0.00    -0.342 OA
ATOM     13  C   UNL     1      -5.061  10.079 -14.155  1.00  0.00    +0.184 C 
ATOM     14  C   UNL     1      -3.248   8.682 -15.248  1.00  0.00    +0.279 C 
ATOM     15  C   UNL     1      -3.986   9.006 -13.930  1.00  0.00    +0.202 C 
BRANCH  14  16
ATOM     16  O   UNL     1      -2.134   9.554 -15.420  1.00  0.00    -0.366 OA
ATOM     17  H   UNL     1      -1.705   9.244 -16.237  1.00  0.00    +0.213 HD
ENDBRANCH  14  16
BRANCH  15  18
ATOM     18  O   UNL     1      -3.063   9.432 -12.919  1.00  0.00    -0.385 OA
ATOM     19  H   UNL     1      -2.219   9.555 -13.406  1.00  0.00    +0.211 HD
ENDBRANCH  15  18
ENDBRANCH   7   8
ENDBRANCH   1   7
BRANCH   2  20
ATOM     20  O   UNL     1      -6.555   7.692 -12.100  1.00  0.00    -0.385 OA
ATOM     21  H   UNL     1      -7.072   8.374 -11.629  1.00  0.00    +0.211 HD
ENDBRANCH   2  20
BRANCH   3  22
ATOM     22  O   UNL     1      -8.560   5.880 -11.455  1.00  0.00    -0.387 OA
ATOM     23  H   UNL     1      -8.124   5.100 -11.859  1.00  0.00    +0.211 HD
ENDBRANCH   3  22
BRANCH   5  24
ATOM     24  C   UNL     1      -8.673   5.901 -16.043  1.00  0.00    +0.220 C 
BRANCH  24  25
ATOM     25  O   UNL     1      -9.629   5.152 -16.790  1.00  0.00    -0.245 OA
BRANCH  25  26
ATOM     26  S   UNL     1      -9.518   3.533 -16.753  1.00  0.00    +0.397 S 
ATOM     27  O   UNL     1      -8.298   3.137 -16.089  1.00  0.00    -0.169 OA
ATOM     28  O   UNL     1      -9.888   3.024 -18.055  1.00  0.00    -0.169 OA
BRANCH  26  29
ATOM     29  O   UNL     1     -10.748   3.136 -15.794  1.00  0.00    -0.264 OA
ATOM     30  H   UNL     1     -10.457   2.368 -15.261  1.00  0.00    +0.236 HD
ENDBRANCH  26  29
ENDBRANCH  25  26
ENDBRANCH  24  25
ENDBRANCH   5  24
BRANCH   4  31
ATOM     31  O   UNL     1      -9.324   4.729 -13.648  1.00  0.00    -0.387 OA
ATOM     32  H   UNL     1      -8.362   4.664 -13.455  1.00  0.00    +0.211 HD
ENDBRANCH   4  31
TORSDOF 11
ENDMDL
MODEL 9
REMARK VINA RESULT:    -5.820      2.799      6.377
REMARK INTER + INTRA:          -9.635
REMARK INTER:                  -8.454
REMARK INTRA:                  -1.181
REMARK UNBOUND:                -1.093
REMARK SMILES O=S(=O)(O)OC[C@@H]1O[C@H](O[C@H]2[C@@H]3OC[C@H]2O[C@@H](O)[C@H]3O)[C@@H](O)[C@H](O)[C@@H]1O
REMARK SMILES IDX 9 1 21 2 23 3 25 4 7 5 8 6 10 7 11 8 14 9 15 10 13 11 16 12
REMARK SMILES IDX 12 13 17 14 19 15 18 16 20 18 22 20 24 22 6 24 5 25 2 26
REMARK SMILES IDX 1 27 3 28 4 29 26 31
REMARK H PARENT 18 17 20 19 22 21 24 23 4 30 26 32
ROOT
ATOM      1  C   UNL     1      -0.348 -13.060  -8.040  1.00  0.00    +0.282 C 
ATOM      2  C   UNL     1      -0.979 -13.224  -9.436  1.00  0.00    +0.202 C 
ATOM      3  C   UNL     1      -2.489 -13.219  -9.277  1.00  0.00    +0.179 C 
ATOM      4  C   UNL     1      -2.939 -11.851  -8.758  1.00  0.00    +0.177 C 
ATOM      5  C   UNL     1      -1.946 -11.237  -7.741  1.00  0.00    +0.180 C 
ATOM      6  O   UNL     1      -1.086 -12.228  -7.148  1.00  0.00    -0.341 OA
ENDROOT
BRANCH   1   7
ATOM      7  O   UNL     1       1.005 -12.632  -8.219  1.00  0.00    -0.341 OA
BRANCH   7   8
ATOM      8  C   UNL     1       1.911 -13.264  -7.321  1.00  0.00    +0.184 C 
ATOM      9  C   UNL     1       3.261 -13.292  -5.404  1.00  0.00    +0.195 C 
ATOM     10  C   UNL     1       1.999 -12.619  -5.946  1.00  0.00    +0.179 C 
ATOM     11  O   UNL     1       4.118 -13.512  -6.554  1.00  0.00    -0.370 OA
ATOM     12  O   UNL     1       2.123 -11.191  -6.068  1.00  0.00    -0.342 OA
ATOM     13  C   UNL     1       3.370 -13.071  -7.717  1.00  0.00    +0.184 C 
ATOM     14  C   UNL     1       3.259 -10.716  -6.783  1.00  0.00    +0.279 C 
ATOM     15  C   UNL     1       3.651 -11.588  -7.996  1.00  0.00    +0.202 C 
BRANCH  14  16
ATOM     16  O   UNL     1       4.354 -10.603  -5.877  1.00  0.00    -0.366 OA
ATOM     17  H   UNL     1       5.095 -11.040  -6.334  1.00  0.00    +0.213 HD
ENDBRANCH  14  16
BRANCH  15  18
ATOM     18  O   UNL     1       5.031 -11.398  -8.336  1.00  0.00    -0.385 OA
ATOM     19  H   UNL     1       5.401 -12.307  -8.340  1.00  0.00    +0.211 HD
ENDBRANCH  15  18
ENDBRANCH   7   8
ENDBRANCH   1   7
BRANCH   2  20
ATOM     20  O   UNL     1      -0.573 -14.458 -10.054  1.00  0.00    -0.385 OA
ATOM     21  H   UNL     1      -0.966 -14.454 -10.949  1.00  0.00    +0.211 HD
ENDBRANCH   2  20
BRANCH   3  22
ATOM     22  O   UNL     1      -3.127 -13.479 -10.539  1.00  0.00    -0.387 OA
ATOM     23  H   UNL     1      -4.060 -13.208 -10.408  1.00  0.00    +0.211 HD
ENDBRANCH   3  22
BRANCH   5  24
ATOM     24  C   UNL     1      -1.152 -10.023  -8.257  1.00  0.00    +0.220 C 
BRANCH  24  25
ATOM     25  O   UNL     1      -2.054  -8.932  -8.428  1.00  0.00    -0.245 OA
BRANCH  25  26
ATOM     26  S   UNL     1      -1.742  -7.871  -9.617  1.00  0.00    +0.397 S 
ATOM     27  O   UNL     1      -2.655  -6.754  -9.534  1.00  0.00    -0.169 OA
ATOM     28  O   UNL     1      -1.538  -8.610 -10.842  1.00  0.00    -0.169 OA
BRANCH  26  29
ATOM     29  O   UNL     1      -0.278  -7.337  -9.212  1.00  0.00    -0.264 OA
ATOM     30  H   UNL     1      -0.406  -6.631  -8.548  1.00  0.00    +0.236 HD
ENDBRANCH  26  29
ENDBRANCH  25  26
ENDBRANCH  24  25
ENDBRANCH   5  24
BRANCH   4  31
ATOM     31  O   UNL     1      -3.158 -10.975  -9.869  1.00  0.00    -0.387 OA
ATOM     32  H   UNL     1      -2.280 -10.569 -10.046  1.00  0.00    +0.211 HD
ENDBRANCH   4  31
TORSDOF 11
ENDMDL
