MODEL 1
REMARK VINA RESULT:    -7.840      0.000      0.000
REMARK INTER + INTRA:         -17.107
REMARK INTER:                 -14.944
REMARK INTRA:                  -2.163
REMARK UNBOUND:                -2.163
REMARK SMILES C[C@H](NC(=O)CCC(=O)O)C(=O)N[C@@H](C)C(=O)N1CCC[C@@H]1C(=O)N[C@H](Cc1ccccc1)C(=O)Nc1ccc([N+](=O)[O-])cc1
REMARK SMILES IDX 14 1 15 2 13 3 11 4 12 5 2 7 1 8 3 9 4 10 5 11 6 13 7 14
REMARK SMILES IDX 8 15 9 16 10 17 16 19 17 20 18 21 19 22 22 23 20 24 21 25
REMARK SMILES IDX 23 26 24 27 25 28 26 30 27 31 28 32 29 33 33 34 30 35 32 36
REMARK SMILES IDX 31 37 34 38 35 39 36 40 37 42 38 43 45 44 39 45 44 46 40 47
REMARK SMILES IDX 41 48 42 49 43 50
REMARK H PARENT 13 6 3 12 10 18 25 29 36 41
ROOT
ATOM      1  C   UNL     1      -2.145 -10.847  -9.980  1.00  0.00    +0.168 C 
ATOM      2  C   UNL     1      -2.266  -9.754 -11.036  1.00  0.00    +0.041 C 
ENDROOT
BRANCH   1   3
ATOM      3  N   UNL     1      -3.384 -11.611  -9.887  1.00  0.00    -0.343 N 
ATOM      4  C   UNL     1      -3.526 -12.884 -10.390  1.00  0.00    +0.242 C 
ATOM      5  O   UNL     1      -2.616 -13.466 -10.974  1.00  0.00    -0.273 OA
ATOM      6  H   UNL     1      -4.110 -11.245  -9.273  1.00  0.00    +0.164 HD
BRANCH   4   7
ATOM      7  C   UNL     1      -4.874 -13.544 -10.033  1.00  0.00    +0.168 C 
ATOM      8  C   UNL     1      -5.885 -13.384 -11.160  1.00  0.00    +0.041 C 
BRANCH   7   9
ATOM      9  N   UNL     1      -5.389 -12.986  -8.779  1.00  0.00    -0.345 N 
ATOM     10  C   UNL     1      -5.570 -13.770  -7.664  1.00  0.00    +0.221 C 
ATOM     11  O   UNL     1      -5.215 -14.941  -7.597  1.00  0.00    -0.275 OA
ATOM     12  H   UNL     1      -5.867 -12.094  -8.832  1.00  0.00    +0.164 HD
BRANCH  10  13
ATOM     13  C   UNL     1      -6.202 -13.023  -6.507  1.00  0.00    +0.111 C 
BRANCH  13  14
ATOM     14  C   UNL     1      -6.570 -11.596  -6.892  1.00  0.00    +0.132 C 
BRANCH  14  15
ATOM     15  C   UNL     1      -8.018 -11.504  -7.286  1.00  0.00    +0.303 C 
ATOM     16  O   UNL     1      -8.556 -10.596  -7.897  1.00  0.00    -0.252 OA
BRANCH  15  17
ATOM     17  O   UNL     1      -8.734 -12.552  -6.837  1.00  0.00    -0.481 OA
ATOM     18  H   UNL     1      -9.660 -12.322  -7.061  1.00  0.00    +0.296 HD
ENDBRANCH  15  17
ENDBRANCH  14  15
ENDBRANCH  13  14
ENDBRANCH  10  13
ENDBRANCH   7   9
ENDBRANCH   4   7
ENDBRANCH   1   3
BRANCH   1  19
ATOM     19  C   UNL     1      -1.888 -10.225  -8.592  1.00  0.00    +0.245 C 
ATOM     20  O   UNL     1      -2.042  -9.011  -8.412  1.00  0.00    -0.272 OA
BRANCH  19  21
ATOM     21  N   UNL     1      -1.450 -11.048  -7.581  1.00  0.00    -0.329 N 
ATOM     22  C   UNL     1      -1.850 -11.038  -6.182  1.00  0.00    +0.120 C 
ATOM     23  C   UNL     1      -0.391 -12.021  -7.825  1.00  0.00    +0.174 C 
ATOM     24  C   UNL     1      -0.896 -12.004  -5.491  1.00  0.00    +0.024 C 
ATOM     25  C   UNL     1      -0.468 -12.947  -6.612  1.00  0.00    +0.037 C 
BRANCH  23  26
ATOM     26  C   UNL     1       0.997 -11.344  -7.898  1.00  0.00    +0.243 C 
ATOM     27  O   UNL     1       1.204 -10.179  -7.564  1.00  0.00    -0.273 OA
ATOM     28  N   UNL     1       2.011 -12.187  -8.320  1.00  0.00    -0.342 N 
ATOM     29  H   UNL     1       1.842 -13.181  -8.214  1.00  0.00    +0.164 HD
BRANCH  28  30
ATOM     30  C   UNL     1       3.410 -11.778  -8.174  1.00  0.00    +0.176 C 
BRANCH  30  31
ATOM     31  C   UNL     1       4.314 -12.619  -9.088  1.00  0.00    +0.070 C 
BRANCH  31  32
ATOM     32  C   UNL     1       5.523 -11.863  -9.589  1.00  0.00    -0.045 A 
ATOM     33  C   UNL     1       5.420 -10.514  -9.951  1.00  0.00    +0.004 A 
ATOM     34  C   UNL     1       6.755 -12.516  -9.733  1.00  0.00    +0.004 A 
ATOM     35  C   UNL     1       6.528  -9.832 -10.459  1.00  0.00    +0.000 A 
ATOM     36  C   UNL     1       7.861 -11.832 -10.240  1.00  0.00    +0.000 A 
ATOM     37  C   UNL     1       7.746 -10.493 -10.605  1.00  0.00    +0.000 A 
ENDBRANCH  31  32
ENDBRANCH  30  31
BRANCH  30  38
ATOM     38  C   UNL     1       3.786 -11.988  -6.687  1.00  0.00    +0.247 C 
ATOM     39  O   UNL     1       3.829 -11.031  -5.913  1.00  0.00    -0.272 OA
ATOM     40  N   UNL     1       3.996 -13.316  -6.356  1.00  0.00    -0.324 N 
ATOM     41  H   UNL     1       3.866 -13.993  -7.101  1.00  0.00    +0.170 HD
BRANCH  40  42
ATOM     42  C   UNL     1       4.312 -13.852  -5.093  1.00  0.00    +0.041 A 
ATOM     43  C   UNL     1       3.382 -14.456  -4.243  1.00  0.00    +0.033 A 
ATOM     44  C   UNL     1       5.651 -13.761  -4.684  1.00  0.00    +0.033 A 
ATOM     45  C   UNL     1       3.776 -14.967  -3.000  1.00  0.00    +0.088 A 
ATOM     46  C   UNL     1       6.058 -14.269  -3.445  1.00  0.00    +0.088 A 
ATOM     47  C   UNL     1       5.115 -14.872  -2.606  1.00  0.00    +0.269 A 
BRANCH  47  48
ATOM     48  N   UNL     1       5.534 -15.408  -1.305  1.00  0.00    +0.062 N 
ATOM     49  O   UNL     1       4.813 -15.169  -0.325  1.00  0.00    -0.258 OA
ATOM     50  O   UNL     1       6.583 -16.066  -1.262  1.00  0.00    -0.258 OA
ENDBRANCH  47  48
ENDBRANCH  40  42
ENDBRANCH  30  38
ENDBRANCH  28  30
ENDBRANCH  23  26
ENDBRANCH  19  21
ENDBRANCH   1  19
TORSDOF 16
ENDMDL
MODEL 2
REMARK VINA RESULT:    -7.440      3.680      5.263
REMARK INTER + INTRA:         -16.345
REMARK INTER:                 -15.459
REMARK INTRA:                  -0.886
REMARK UNBOUND:                -2.163
REMARK SMILES C[C@H](NC(=O)CCC(=O)O)C(=O)N[C@@H](C)C(=O)N1CCC[C@@H]1C(=O)N[C@H](Cc1ccccc1)C(=O)Nc1ccc([N+](=O)[O-])cc1
REMARK SMILES IDX 14 1 15 2 13 3 11 4 12 5 2 7 1 8 3 9 4 10 5 11 6 13 7 14
REMARK SMILES IDX 8 15 9 16 10 17 16 19 17 20 18 21 19 22 22 23 20 24 21 25
REMARK SMILES IDX 23 26 24 27 25 28 26 30 27 31 28 32 29 33 33 34 30 35 32 36
REMARK SMILES IDX 31 37 34 38 35 39 36 40 37 42 38 43 45 44 39 45 44 46 40 47
REMARK SMILES IDX 41 48 42 49 43 50
REMARK H PARENT 13 6 3 12 10 18 25 29 36 41
ROOT
ATOM      1  C   UNL     1      -2.648 -10.619 -10.977  1.00  0.00    +0.168 C 
ATOM      2  C   UNL     1      -3.172 -11.919 -10.376  1.00  0.00    +0.041 C 
ENDROOT
BRANCH   1   3
ATOM      3  N   UNL     1      -2.341 -10.795 -12.392  1.00  0.00    -0.343 N 
ATOM      4  C   UNL     1      -2.977 -10.099 -13.395  1.00  0.00    +0.242 C 
ATOM      5  O   UNL     1      -3.869  -9.285 -13.168  1.00  0.00    -0.273 OA
ATOM      6  H   UNL     1      -1.504 -11.327 -12.623  1.00  0.00    +0.164 HD
BRANCH   4   7
ATOM      7  C   UNL     1      -2.373 -10.339 -14.793  1.00  0.00    +0.168 C 
ATOM      8  C   UNL     1      -0.851 -10.348 -14.745  1.00  0.00    +0.041 C 
BRANCH   7   9
ATOM      9  N   UNL     1      -2.864  -9.328 -15.734  1.00  0.00    -0.345 N 
ATOM     10  C   UNL     1      -3.438  -9.681 -16.934  1.00  0.00    +0.221 C 
ATOM     11  O   UNL     1      -3.682 -10.839 -17.251  1.00  0.00    -0.275 OA
ATOM     12  H   UNL     1      -2.524  -8.381 -15.615  1.00  0.00    +0.164 HD
BRANCH  10  13
ATOM     13  C   UNL     1      -3.789  -8.487 -17.799  1.00  0.00    +0.111 C 
BRANCH  13  14
ATOM     14  C   UNL     1      -4.434  -7.372 -16.985  1.00  0.00    +0.132 C 
BRANCH  14  15
ATOM     15  C   UNL     1      -4.978  -6.298 -17.886  1.00  0.00    +0.303 C 
ATOM     16  O   UNL     1      -5.303  -6.415 -19.055  1.00  0.00    -0.252 OA
BRANCH  15  17
ATOM     17  O   UNL     1      -5.036  -5.101 -17.272  1.00  0.00    -0.481 OA
ATOM     18  H   UNL     1      -5.496  -4.523 -17.917  1.00  0.00    +0.296 HD
ENDBRANCH  15  17
ENDBRANCH  14  15
ENDBRANCH  13  14
ENDBRANCH  10  13
ENDBRANCH   7   9
ENDBRANCH   4   7
ENDBRANCH   1   3
BRANCH   1  19
ATOM     19  C   UNL     1      -1.342 -10.194 -10.276  1.00  0.00    +0.245 C 
ATOM     20  O   UNL     1      -0.517  -9.485 -10.866  1.00  0.00    -0.272 OA
BRANCH  19  21
ATOM     21  N   UNL     1      -1.107 -10.654  -9.002  1.00  0.00    -0.329 N 
ATOM     22  C   UNL     1      -1.386  -9.982  -7.742  1.00  0.00    +0.120 C 
ATOM     23  C   UNL     1      -0.416 -11.921  -8.789  1.00  0.00    +0.174 C 
ATOM     24  C   UNL     1      -0.727 -10.850  -6.677  1.00  0.00    +0.024 C 
ATOM     25  C   UNL     1      -0.688 -12.235  -7.318  1.00  0.00    +0.037 C 
BRANCH  23  26
ATOM     26  C   UNL     1       1.103 -11.789  -9.038  1.00  0.00    +0.243 C 
ATOM     27  O   UNL     1       1.590 -11.480 -10.125  1.00  0.00    -0.273 OA
ATOM     28  N   UNL     1       1.877 -11.994  -7.909  1.00  0.00    -0.342 N 
ATOM     29  H   UNL     1       1.412 -11.871  -7.017  1.00  0.00    +0.164 HD
BRANCH  28  30
ATOM     30  C   UNL     1       3.297 -11.632  -7.921  1.00  0.00    +0.176 C 
BRANCH  30  31
ATOM     31  C   UNL     1       4.065 -12.503  -8.926  1.00  0.00    +0.070 C 
BRANCH  31  32
ATOM     32  C   UNL     1       5.301 -11.830  -9.476  1.00  0.00    -0.045 A 
ATOM     33  C   UNL     1       6.561 -12.426  -9.332  1.00  0.00    +0.004 A 
ATOM     34  C   UNL     1       5.206 -10.580 -10.104  1.00  0.00    +0.004 A 
ATOM     35  C   UNL     1       7.707 -11.779  -9.798  1.00  0.00    +0.000 A 
ATOM     36  C   UNL     1       6.353  -9.936 -10.570  1.00  0.00    +0.000 A 
ATOM     37  C   UNL     1       7.601 -10.533 -10.414  1.00  0.00    +0.000 A 
ENDBRANCH  31  32
ENDBRANCH  30  31
BRANCH  30  38
ATOM     38  C   UNL     1       3.829 -11.856  -6.484  1.00  0.00    +0.247 C 
ATOM     39  O   UNL     1       4.037 -10.898  -5.739  1.00  0.00    -0.272 OA
ATOM     40  N   UNL     1       3.974 -13.193  -6.154  1.00  0.00    -0.324 N 
ATOM     41  H   UNL     1       3.705 -13.866  -6.865  1.00  0.00    +0.170 HD
BRANCH  40  42
ATOM     42  C   UNL     1       4.395 -13.739  -4.926  1.00  0.00    +0.041 A 
ATOM     43  C   UNL     1       3.526 -14.127  -3.902  1.00  0.00    +0.033 A 
ATOM     44  C   UNL     1       5.777 -13.893  -4.742  1.00  0.00    +0.033 A 
ATOM     45  C   UNL     1       4.024 -14.664  -2.709  1.00  0.00    +0.088 A 
ATOM     46  C   UNL     1       6.287 -14.430  -3.555  1.00  0.00    +0.088 A 
ATOM     47  C   UNL     1       5.405 -14.814  -2.540  1.00  0.00    +0.269 A 
BRANCH  47  48
ATOM     48  N   UNL     1       5.931 -15.379  -1.291  1.00  0.00    +0.062 N 
ATOM     49  O   UNL     1       5.121 -15.628  -0.386  1.00  0.00    -0.258 OA
ATOM     50  O   UNL     1       7.153 -15.572  -1.214  1.00  0.00    -0.258 OA
ENDBRANCH  47  48
ENDBRANCH  40  42
ENDBRANCH  30  38
ENDBRANCH  28  30
ENDBRANCH  23  26
ENDBRANCH  19  21
ENDBRANCH   1  19
TORSDOF 16
ENDMDL
MODEL 3
REMARK VINA RESULT:    -7.337      2.500      4.225
REMARK INTER + INTRA:         -16.148
REMARK INTER:                 -13.451
REMARK INTRA:                  -2.696
REMARK UNBOUND:                -2.163
REMARK SMILES C[C@H](NC(=O)CCC(=O)O)C(=O)N[C@@H](C)C(=O)N1CCC[C@@H]1C(=O)N[C@H](Cc1ccccc1)C(=O)Nc1ccc([N+](=O)[O-])cc1
REMARK SMILES IDX 14 1 15 2 13 3 11 4 12 5 2 7 1 8 3 9 4 10 5 11 6 13 7 14
REMARK SMILES IDX 8 15 9 16 10 17 16 19 17 20 18 21 19 22 22 23 20 24 21 25
REMARK SMILES IDX 23 26 24 27 25 28 26 30 27 31 28 32 29 33 33 34 30 35 32 36
REMARK SMILES IDX 31 37 34 38 35 39 36 40 37 42 38 43 45 44 39 45 44 46 40 47
REMARK SMILES IDX 41 48 42 49 43 50
REMARK H PARENT 13 6 3 12 10 18 25 29 36 41
ROOT
ATOM      1  C   UNL     1      -2.710 -10.298  -8.204  1.00  0.00    +0.168 C 
ATOM      2  C   UNL     1      -3.418 -11.598  -7.838  1.00  0.00    +0.041 C 
ENDROOT
BRANCH   1   3
ATOM      3  N   UNL     1      -2.388 -10.273  -9.627  1.00  0.00    -0.343 N 
ATOM      4  C   UNL     1      -2.425  -9.128 -10.390  1.00  0.00    +0.242 C 
ATOM      5  O   UNL     1      -2.751  -8.039  -9.925  1.00  0.00    -0.273 OA
ATOM      6  H   UNL     1      -1.953 -11.107 -10.020  1.00  0.00    +0.164 HD
BRANCH   4   7
ATOM      7  C   UNL     1      -1.892  -9.322 -11.824  1.00  0.00    +0.168 C 
ATOM      8  C   UNL     1      -3.031  -9.403 -12.831  1.00  0.00    +0.041 C 
BRANCH   7   9
ATOM      9  N   UNL     1      -1.046 -10.517 -11.888  1.00  0.00    -0.345 N 
ATOM     10  C   UNL     1      -0.318 -10.824 -13.014  1.00  0.00    +0.221 C 
ATOM     11  O   UNL     1      -0.231 -10.081 -13.984  1.00  0.00    -0.275 OA
ATOM     12  H   UNL     1      -1.225 -11.248 -11.208  1.00  0.00    +0.164 HD
BRANCH  10  13
ATOM     13  C   UNL     1       0.411 -12.148 -12.909  1.00  0.00    +0.111 C 
BRANCH  13  14
ATOM     14  C   UNL     1      -0.510 -13.262 -12.427  1.00  0.00    +0.132 C 
BRANCH  14  15
ATOM     15  C   UNL     1      -0.341 -13.496 -10.952  1.00  0.00    +0.303 C 
ATOM     16  O   UNL     1       0.633 -13.967 -10.391  1.00  0.00    -0.252 OA
BRANCH  15  17
ATOM     17  O   UNL     1      -1.446 -13.170 -10.256  1.00  0.00    -0.481 OA
ATOM     18  H   UNL     1      -1.328 -12.218 -10.053  1.00  0.00    +0.296 HD
ENDBRANCH  15  17
ENDBRANCH  14  15
ENDBRANCH  13  14
ENDBRANCH  10  13
ENDBRANCH   7   9
ENDBRANCH   4   7
ENDBRANCH   1   3
BRANCH   1  19
ATOM     19  C   UNL     1      -1.380 -10.178  -7.434  1.00  0.00    +0.245 C 
ATOM     20  O   UNL     1      -0.689  -9.157  -7.533  1.00  0.00    -0.272 OA
BRANCH  19  21
ATOM     21  N   UNL     1      -0.970 -11.247  -6.671  1.00  0.00    -0.329 N 
ATOM     22  C   UNL     1      -1.205 -11.477  -5.254  1.00  0.00    +0.120 C 
ATOM     23  C   UNL     1      -0.116 -12.281  -7.245  1.00  0.00    +0.174 C 
ATOM     24  C   UNL     1      -0.348 -12.687  -4.903  1.00  0.00    +0.024 C 
ATOM     25  C   UNL     1      -0.206 -13.423  -6.233  1.00  0.00    +0.037 C 
BRANCH  23  26
ATOM     26  C   UNL     1       1.345 -11.799  -7.383  1.00  0.00    +0.243 C 
ATOM     27  O   UNL     1       1.804 -10.834  -6.774  1.00  0.00    -0.273 OA
ATOM     28  N   UNL     1       2.120 -12.588  -8.217  1.00  0.00    -0.342 N 
ATOM     29  H   UNL     1       1.793 -13.535  -8.371  1.00  0.00    +0.164 HD
BRANCH  28  30
ATOM     30  C   UNL     1       3.576 -12.427  -8.229  1.00  0.00    +0.176 C 
BRANCH  30  31
ATOM     31  C   UNL     1       4.127 -12.632  -9.648  1.00  0.00    +0.070 C 
BRANCH  31  32
ATOM     32  C   UNL     1       5.427 -11.902  -9.894  1.00  0.00    -0.045 A 
ATOM     33  C   UNL     1       6.654 -12.512  -9.603  1.00  0.00    +0.004 A 
ATOM     34  C   UNL     1       5.419 -10.587 -10.382  1.00  0.00    +0.004 A 
ATOM     35  C   UNL     1       7.851 -11.817  -9.786  1.00  0.00    +0.000 A 
ATOM     36  C   UNL     1       6.616  -9.895 -10.565  1.00  0.00    +0.000 A 
ATOM     37  C   UNL     1       7.830 -10.509 -10.264  1.00  0.00    +0.000 A 
ENDBRANCH  31  32
ENDBRANCH  30  31
BRANCH  30  38
ATOM     38  C   UNL     1       4.153 -13.487  -7.259  1.00  0.00    +0.247 C 
ATOM     39  O   UNL     1       4.345 -14.642  -7.639  1.00  0.00    -0.272 OA
ATOM     40  N   UNL     1       4.456 -12.979  -6.007  1.00  0.00    -0.324 N 
ATOM     41  H   UNL     1       4.288 -11.987  -5.869  1.00  0.00    +0.170 HD
BRANCH  40  42
ATOM     42  C   UNL     1       5.025 -13.659  -4.913  1.00  0.00    +0.041 A 
ATOM     43  C   UNL     1       6.292 -14.247  -4.929  1.00  0.00    +0.033 A 
ATOM     44  C   UNL     1       4.251 -13.739  -3.745  1.00  0.00    +0.033 A 
ATOM     45  C   UNL     1       6.788 -14.905  -3.798  1.00  0.00    +0.088 A 
ATOM     46  C   UNL     1       4.736 -14.394  -2.607  1.00  0.00    +0.088 A 
ATOM     47  C   UNL     1       6.007 -14.976  -2.639  1.00  0.00    +0.269 A 
BRANCH  47  48
ATOM     48  N   UNL     1       6.525 -15.664  -1.450  1.00  0.00    +0.062 N 
ATOM     49  O   UNL     1       7.715 -15.486  -1.155  1.00  0.00    -0.258 OA
ATOM     50  O   UNL     1       5.742 -16.383  -0.813  1.00  0.00    -0.258 OA
ENDBRANCH  47  48
ENDBRANCH  40  42
ENDBRANCH  30  38
ENDBRANCH  28  30
ENDBRANCH  23  26
ENDBRANCH  19  21
ENDBRANCH   1  19
TORSDOF 16
ENDMDL
MODEL 4
REMARK VINA RESULT:    -7.323      3.432      6.859
REMARK INTER + INTRA:         -16.121
REMARK INTER:                 -13.213
REMARK INTRA:                  -2.908
REMARK UNBOUND:                -2.163
REMARK SMILES C[C@H](NC(=O)CCC(=O)O)C(=O)N[C@@H](C)C(=O)N1CCC[C@@H]1C(=O)N[C@H](Cc1ccccc1)C(=O)Nc1ccc([N+](=O)[O-])cc1
REMARK SMILES IDX 14 1 15 2 13 3 11 4 12 5 2 7 1 8 3 9 4 10 5 11 6 13 7 14
REMARK SMILES IDX 8 15 9 16 10 17 16 19 17 20 18 21 19 22 22 23 20 24 21 25
REMARK SMILES IDX 23 26 24 27 25 28 26 30 27 31 28 32 29 33 33 34 30 35 32 36
REMARK SMILES IDX 31 37 34 38 35 39 36 40 37 42 38 43 45 44 39 45 44 46 40 47
REMARK SMILES IDX 41 48 42 49 43 50
REMARK H PARENT 13 6 3 12 10 18 25 29 36 41
ROOT
ATOM      1  C   UNL     1      -2.131 -13.597 -12.243  1.00  0.00    +0.168 C 
ATOM      2  C   UNL     1      -1.809 -12.896 -13.559  1.00  0.00    +0.041 C 
ENDROOT
BRANCH   1   3
ATOM      3  N   UNL     1      -2.120 -12.644 -11.138  1.00  0.00    -0.343 N 
ATOM      4  C   UNL     1      -2.944 -12.751 -10.040  1.00  0.00    +0.242 C 
ATOM      5  O   UNL     1      -3.766 -13.656  -9.920  1.00  0.00    -0.273 OA
ATOM      6  H   UNL     1      -1.351 -11.977 -11.108  1.00  0.00    +0.164 HD
BRANCH   4   7
ATOM      7  C   UNL     1      -2.639 -11.719  -8.936  1.00  0.00    +0.168 C 
ATOM      8  C   UNL     1      -3.562 -11.900  -7.738  1.00  0.00    +0.041 C 
BRANCH   7   9
ATOM      9  N   UNL     1      -2.737 -10.361  -9.476  1.00  0.00    -0.345 N 
ATOM     10  C   UNL     1      -1.633  -9.697  -9.960  1.00  0.00    +0.221 C 
ATOM     11  O   UNL     1      -0.531 -10.219 -10.079  1.00  0.00    -0.275 OA
ATOM     12  H   UNL     1      -3.561  -9.824  -9.232  1.00  0.00    +0.164 HD
BRANCH  10  13
ATOM     13  C   UNL     1      -1.933  -8.272 -10.381  1.00  0.00    +0.111 C 
BRANCH  13  14
ATOM     14  C   UNL     1      -1.873  -7.311  -9.201  1.00  0.00    +0.132 C 
BRANCH  14  15
ATOM     15  C   UNL     1      -0.777  -7.700  -8.248  1.00  0.00    +0.303 C 
ATOM     16  O   UNL     1       0.374  -7.300  -8.250  1.00  0.00    -0.252 OA
BRANCH  15  17
ATOM     17  O   UNL     1      -1.182  -8.629  -7.360  1.00  0.00    -0.481 OA
ATOM     18  H   UNL     1      -1.434  -9.396  -7.916  1.00  0.00    +0.296 HD
ENDBRANCH  15  17
ENDBRANCH  14  15
ENDBRANCH  13  14
ENDBRANCH  10  13
ENDBRANCH   7   9
ENDBRANCH   4   7
ENDBRANCH   1   3
BRANCH   1  19
ATOM     19  C   UNL     1      -1.066 -14.668 -11.932  1.00  0.00    +0.245 C 
ATOM     20  O   UNL     1      -1.399 -15.767 -11.473  1.00  0.00    -0.272 OA
BRANCH  19  21
ATOM     21  N   UNL     1       0.256 -14.351 -12.142  1.00  0.00    -0.329 N 
ATOM     22  C   UNL     1       1.259 -15.127 -12.856  1.00  0.00    +0.120 C 
ATOM     23  C   UNL     1       0.835 -13.156 -11.539  1.00  0.00    +0.174 C 
ATOM     24  C   UNL     1       2.576 -14.411 -12.587  1.00  0.00    +0.024 C 
ATOM     25  C   UNL     1       2.150 -12.974 -12.297  1.00  0.00    +0.037 C 
BRANCH  23  26
ATOM     26  C   UNL     1       1.107 -13.355 -10.031  1.00  0.00    +0.243 C 
ATOM     27  O   UNL     1       1.109 -14.454  -9.479  1.00  0.00    -0.273 OA
ATOM     28  N   UNL     1       1.406 -12.185  -9.355  1.00  0.00    -0.342 N 
ATOM     29  H   UNL     1       1.745 -11.414  -9.920  1.00  0.00    +0.164 HD
BRANCH  28  30
ATOM     30  C   UNL     1       1.954 -12.244  -7.998  1.00  0.00    +0.176 C 
BRANCH  30  31
ATOM     31  C   UNL     1       1.176 -11.307  -7.062  1.00  0.00    +0.070 C 
BRANCH  31  32
ATOM     32  C   UNL     1       0.438 -12.038  -5.965  1.00  0.00    -0.045 A 
ATOM     33  C   UNL     1      -0.726 -11.495  -5.405  1.00  0.00    +0.004 A 
ATOM     34  C   UNL     1       0.932 -13.252  -5.468  1.00  0.00    +0.004 A 
ATOM     35  C   UNL     1      -1.378 -12.150  -4.359  1.00  0.00    +0.000 A 
ATOM     36  C   UNL     1       0.278 -13.905  -4.422  1.00  0.00    +0.000 A 
ATOM     37  C   UNL     1      -0.874 -13.353  -3.867  1.00  0.00    +0.000 A 
ENDBRANCH  31  32
ENDBRANCH  30  31
BRANCH  30  38
ATOM     38  C   UNL     1       3.438 -11.813  -8.095  1.00  0.00    +0.247 C 
ATOM     39  O   UNL     1       4.037 -11.407  -7.098  1.00  0.00    -0.272 OA
ATOM     40  N   UNL     1       3.980 -11.988  -9.356  1.00  0.00    -0.324 N 
ATOM     41  H   UNL     1       3.367 -12.387 -10.060  1.00  0.00    +0.170 HD
BRANCH  40  42
ATOM     42  C   UNL     1       5.301 -11.733  -9.772  1.00  0.00    +0.041 A 
ATOM     43  C   UNL     1       5.784 -10.468 -10.118  1.00  0.00    +0.033 A 
ATOM     44  C   UNL     1       6.169 -12.834  -9.836  1.00  0.00    +0.033 A 
ATOM     45  C   UNL     1       7.114 -10.297 -10.522  1.00  0.00    +0.088 A 
ATOM     46  C   UNL     1       7.500 -12.676 -10.237  1.00  0.00    +0.088 A 
ATOM     47  C   UNL     1       7.968 -11.403 -10.579  1.00  0.00    +0.269 A 
BRANCH  47  48
ATOM     48  N   UNL     1       9.364 -11.228 -10.999  1.00  0.00    +0.062 N 
ATOM     49  O   UNL     1       9.576 -10.581 -12.035  1.00  0.00    -0.258 OA
ATOM     50  O   UNL     1      10.247 -11.738 -10.296  1.00  0.00    -0.258 OA
ENDBRANCH  47  48
ENDBRANCH  40  42
ENDBRANCH  30  38
ENDBRANCH  28  30
ENDBRANCH  23  26
ENDBRANCH  19  21
ENDBRANCH   1  19
TORSDOF 16
ENDMDL
MODEL 5
REMARK VINA RESULT:    -7.229      3.685      7.498
REMARK INTER + INTRA:         -15.943
REMARK INTER:                 -12.553
REMARK INTRA:                  -3.389
REMARK UNBOUND:                -2.163
REMARK SMILES C[C@H](NC(=O)CCC(=O)O)C(=O)N[C@@H](C)C(=O)N1CCC[C@@H]1C(=O)N[C@H](Cc1ccccc1)C(=O)Nc1ccc([N+](=O)[O-])cc1
REMARK SMILES IDX 14 1 15 2 13 3 11 4 12 5 2 7 1 8 3 9 4 10 5 11 6 13 7 14
REMARK SMILES IDX 8 15 9 16 10 17 16 19 17 20 18 21 19 22 22 23 20 24 21 25
REMARK SMILES IDX 23 26 24 27 25 28 26 30 27 31 28 32 29 33 33 34 30 35 32 36
REMARK SMILES IDX 31 37 34 38 35 39 36 40 37 42 38 43 45 44 39 45 44 46 40 47
REMARK SMILES IDX 41 48 42 49 43 50
REMARK H PARENT 13 6 3 12 10 18 25 29 36 41
ROOT
ATOM      1  C   UNL     1      -2.326 -11.839  -6.060  1.00  0.00    +0.168 C 
ATOM      2  C   UNL     1      -3.813 -12.141  -5.908  1.00  0.00    +0.041 C 
ENDROOT
BRANCH   1   3
ATOM      3  N   UNL     1      -2.114 -10.792  -7.054  1.00  0.00    -0.343 N 
ATOM      4  C   UNL     1      -0.912 -10.144  -7.223  1.00  0.00    +0.242 C 
ATOM      5  O   UNL     1       0.072 -10.391  -6.530  1.00  0.00    -0.273 OA
ATOM      6  H   UNL     1      -2.839 -10.667  -7.759  1.00  0.00    +0.164 HD
BRANCH   4   7
ATOM      7  C   UNL     1      -0.888  -9.192  -8.436  1.00  0.00    +0.168 C 
ATOM      8  C   UNL     1      -1.150  -7.752  -8.016  1.00  0.00    +0.041 C 
BRANCH   7   9
ATOM      9  N   UNL     1      -1.860  -9.633  -9.440  1.00  0.00    -0.345 N 
ATOM     10  C   UNL     1      -1.589  -9.556 -10.787  1.00  0.00    +0.221 C 
ATOM     11  O   UNL     1      -0.498  -9.229 -11.237  1.00  0.00    -0.275 OA
ATOM     12  H   UNL     1      -2.823  -9.729  -9.141  1.00  0.00    +0.164 HD
BRANCH  10  13
ATOM     13  C   UNL     1      -2.760  -9.971 -11.654  1.00  0.00    +0.111 C 
BRANCH  13  14
ATOM     14  C   UNL     1      -2.298 -10.560 -12.981  1.00  0.00    +0.132 C 
BRANCH  14  15
ATOM     15  C   UNL     1      -2.376  -9.534 -14.078  1.00  0.00    +0.303 C 
ATOM     16  O   UNL     1      -3.345  -9.270 -14.768  1.00  0.00    -0.252 OA
BRANCH  15  17
ATOM     17  O   UNL     1      -1.194  -8.923 -14.287  1.00  0.00    -0.481 OA
ATOM     18  H   UNL     1      -1.134  -8.266 -13.563  1.00  0.00    +0.296 HD
ENDBRANCH  15  17
ENDBRANCH  14  15
ENDBRANCH  13  14
ENDBRANCH  10  13
ENDBRANCH   7   9
ENDBRANCH   4   7
ENDBRANCH   1   3
BRANCH   1  19
ATOM     19  C   UNL     1      -1.574 -13.092  -6.551  1.00  0.00    +0.245 C 
ATOM     20  O   UNL     1      -1.681 -13.468  -7.725  1.00  0.00    -0.272 OA
BRANCH  19  21
ATOM     21  N   UNL     1      -0.817 -13.795  -5.642  1.00  0.00    -0.329 N 
ATOM     22  C   UNL     1      -0.490 -13.425  -4.274  1.00  0.00    +0.120 C 
ATOM     23  C   UNL     1      -0.148 -15.030  -6.035  1.00  0.00    +0.174 C 
ATOM     24  C   UNL     1       0.540 -14.453  -3.823  1.00  0.00    +0.024 C 
ATOM     25  C   UNL     1       0.245 -15.666  -4.702  1.00  0.00    +0.037 C 
BRANCH  23  26
ATOM     26  C   UNL     1       1.110 -14.748  -6.888  1.00  0.00    +0.243 C 
ATOM     27  O   UNL     1       1.784 -15.630  -7.418  1.00  0.00    -0.273 OA
ATOM     28  N   UNL     1       1.385 -13.402  -7.054  1.00  0.00    -0.342 N 
ATOM     29  H   UNL     1       0.609 -12.764  -6.916  1.00  0.00    +0.164 HD
BRANCH  28  30
ATOM     30  C   UNL     1       2.367 -12.974  -8.053  1.00  0.00    +0.176 C 
BRANCH  30  31
ATOM     31  C   UNL     1       3.141 -11.745  -7.555  1.00  0.00    +0.070 C 
BRANCH  31  32
ATOM     32  C   UNL     1       4.366 -12.100  -6.745  1.00  0.00    -0.045 A 
ATOM     33  C   UNL     1       5.457 -12.742  -7.346  1.00  0.00    +0.004 A 
ATOM     34  C   UNL     1       4.410 -11.823  -5.371  1.00  0.00    +0.004 A 
ATOM     35  C   UNL     1       6.567 -13.111  -6.584  1.00  0.00    +0.000 A 
ATOM     36  C   UNL     1       5.521 -12.193  -4.612  1.00  0.00    +0.000 A 
ATOM     37  C   UNL     1       6.596 -12.839  -5.218  1.00  0.00    +0.000 A 
ENDBRANCH  31  32
ENDBRANCH  30  31
BRANCH  30  38
ATOM     38  C   UNL     1       1.577 -12.639  -9.343  1.00  0.00    +0.247 C 
ATOM     39  O   UNL     1       1.350 -11.468  -9.649  1.00  0.00    -0.272 OA
ATOM     40  N   UNL     1       1.234 -13.757 -10.083  1.00  0.00    -0.324 N 
ATOM     41  H   UNL     1       1.545 -14.653  -9.719  1.00  0.00    +0.170 HD
BRANCH  40  42
ATOM     42  C   UNL     1       0.553 -13.802 -11.315  1.00  0.00    +0.041 A 
ATOM     43  C   UNL     1       1.141 -13.500 -12.546  1.00  0.00    +0.033 A 
ATOM     44  C   UNL     1      -0.798 -14.177 -11.278  1.00  0.00    +0.033 A 
ATOM     45  C   UNL     1       0.395 -13.570 -13.729  1.00  0.00    +0.088 A 
ATOM     46  C   UNL     1      -1.554 -14.252 -12.454  1.00  0.00    +0.088 A 
ATOM     47  C   UNL     1      -0.951 -13.946 -13.678  1.00  0.00    +0.269 A 
BRANCH  47  48
ATOM     48  N   UNL     1      -1.736 -14.023 -14.917  1.00  0.00    +0.062 N 
ATOM     49  O   UNL     1      -1.788 -15.117 -15.498  1.00  0.00    -0.258 OA
ATOM     50  O   UNL     1      -2.296 -12.990 -15.310  1.00  0.00    -0.258 OA
ENDBRANCH  47  48
ENDBRANCH  40  42
ENDBRANCH  30  38
ENDBRANCH  28  30
ENDBRANCH  23  26
ENDBRANCH  19  21
ENDBRANCH   1  19
TORSDOF 16
ENDMDL
MODEL 6
REMARK VINA RESULT:    -6.935      2.798      4.531
REMARK INTER + INTRA:         -15.383
REMARK INTER:                 -13.353
REMARK INTRA:                  -2.030
REMARK UNBOUND:                -2.163
REMARK SMILES C[C@H](NC(=O)CCC(=O)O)C(=O)N[C@@H](C)C(=O)N1CCC[C@@H]1C(=O)N[C@H](Cc1ccccc1)C(=O)Nc1ccc([N+](=O)[O-])cc1
REMARK SMILES IDX 14 1 15 2 13 3 11 4 12 5 2 7 1 8 3 9 4 10 5 11 6 13 7 14
REMARK SMILES IDX 8 15 9 16 10 17 16 19 17 20 18 21 19 22 22 23 20 24 21 25
REMARK SMILES IDX 23 26 24 27 25 28 26 30 27 31 28 32 29 33 33 34 30 35 32 36
REMARK SMILES IDX 31 37 34 38 35 39 36 40 37 42 38 43 45 44 39 45 44 46 40 47
REMARK SMILES IDX 41 48 42 49 43 50
REMARK H PARENT 13 6 3 12 10 18 25 29 36 41
ROOT
ATOM      1  C   UNL     1      -0.316 -11.835  -5.479  1.00  0.00    +0.168 C 
ATOM      2  C   UNL     1      -0.747 -12.853  -4.429  1.00  0.00    +0.041 C 
ENDROOT
BRANCH   1   3
ATOM      3  N   UNL     1      -1.384 -11.616  -6.449  1.00  0.00    -0.343 N 
ATOM      4  C   UNL     1      -1.523 -10.451  -7.169  1.00  0.00    +0.242 C 
ATOM      5  O   UNL     1      -0.760  -9.499  -7.033  1.00  0.00    -0.273 OA
ATOM      6  H   UNL     1      -1.939 -12.426  -6.720  1.00  0.00    +0.164 HD
BRANCH   4   7
ATOM      7  C   UNL     1      -2.629 -10.516  -8.242  1.00  0.00    +0.168 C 
ATOM      8  C   UNL     1      -3.359 -11.851  -8.204  1.00  0.00    +0.041 C 
BRANCH   7   9
ATOM      9  N   UNL     1      -2.058 -10.265  -9.568  1.00  0.00    -0.345 N 
ATOM     10  C   UNL     1      -2.079  -9.012 -10.136  1.00  0.00    +0.221 C 
ATOM     11  O   UNL     1      -2.464  -8.010  -9.544  1.00  0.00    -0.275 OA
ATOM     12  H   UNL     1      -1.906 -11.069 -10.166  1.00  0.00    +0.164 HD
BRANCH  10  13
ATOM     13  C   UNL     1      -1.527  -8.988 -11.547  1.00  0.00    +0.111 C 
BRANCH  13  14
ATOM     14  C   UNL     1      -2.609  -9.273 -12.581  1.00  0.00    +0.132 C 
BRANCH  14  15
ATOM     15  C   UNL     1      -2.012  -9.843 -13.837  1.00  0.00    +0.303 C 
ATOM     16  O   UNL     1      -2.239 -10.936 -14.328  1.00  0.00    -0.252 OA
BRANCH  15  17
ATOM     17  O   UNL     1      -1.106  -9.015 -14.390  1.00  0.00    -0.481 OA
ATOM     18  H   UNL     1      -0.475  -9.616 -14.839  1.00  0.00    +0.296 HD
ENDBRANCH  15  17
ENDBRANCH  14  15
ENDBRANCH  13  14
ENDBRANCH  10  13
ENDBRANCH   7   9
ENDBRANCH   4   7
ENDBRANCH   1   3
BRANCH   1  19
ATOM     19  C   UNL     1       0.907 -12.356  -6.259  1.00  0.00    +0.245 C 
ATOM     20  O   UNL     1       2.040 -11.928  -6.007  1.00  0.00    -0.272 OA
BRANCH  19  21
ATOM     21  N   UNL     1       0.698 -13.274  -7.262  1.00  0.00    -0.329 N 
ATOM     22  C   UNL     1       0.633 -14.723  -7.149  1.00  0.00    +0.120 C 
ATOM     23  C   UNL     1       0.607 -12.843  -8.652  1.00  0.00    +0.174 C 
ATOM     24  C   UNL     1       0.603 -15.230  -8.585  1.00  0.00    +0.024 C 
ATOM     25  C   UNL     1       0.016 -14.058  -9.367  1.00  0.00    +0.037 C 
BRANCH  23  26
ATOM     26  C   UNL     1       1.998 -12.502  -9.234  1.00  0.00    +0.243 C 
ATOM     27  O   UNL     1       2.190 -11.617 -10.065  1.00  0.00    -0.273 OA
ATOM     28  N   UNL     1       3.031 -13.248  -8.692  1.00  0.00    -0.342 N 
ATOM     29  H   UNL     1       2.855 -13.667  -7.785  1.00  0.00    +0.164 HD
BRANCH  28  30
ATOM     30  C   UNL     1       4.421 -12.854  -8.932  1.00  0.00    +0.176 C 
BRANCH  30  31
ATOM     31  C   UNL     1       4.988 -13.599 -10.150  1.00  0.00    +0.070 C 
BRANCH  31  32
ATOM     32  C   UNL     1       5.681 -12.689 -11.137  1.00  0.00    -0.045 A 
ATOM     33  C   UNL     1       5.006 -12.225 -12.274  1.00  0.00    +0.004 A 
ATOM     34  C   UNL     1       7.022 -12.327 -10.945  1.00  0.00    +0.004 A 
ATOM     35  C   UNL     1       5.665 -11.423 -13.207  1.00  0.00    +0.000 A 
ATOM     36  C   UNL     1       7.677 -11.525 -11.880  1.00  0.00    +0.000 A 
ATOM     37  C   UNL     1       7.000 -11.076 -13.011  1.00  0.00    +0.000 A 
ENDBRANCH  31  32
ENDBRANCH  30  31
BRANCH  30  38
ATOM     38  C   UNL     1       5.216 -13.212  -7.652  1.00  0.00    +0.247 C 
ATOM     39  O   UNL     1       6.436 -13.047  -7.609  1.00  0.00    -0.272 OA
ATOM     40  N   UNL     1       4.416 -13.658  -6.615  1.00  0.00    -0.324 N 
ATOM     41  H   UNL     1       3.417 -13.685  -6.795  1.00  0.00    +0.170 HD
BRANCH  40  42
ATOM     42  C   UNL     1       4.811 -14.026  -5.315  1.00  0.00    +0.041 A 
ATOM     43  C   UNL     1       6.140 -14.069  -4.883  1.00  0.00    +0.033 A 
ATOM     44  C   UNL     1       3.791 -14.369  -4.415  1.00  0.00    +0.033 A 
ATOM     45  C   UNL     1       6.452 -14.445  -3.571  1.00  0.00    +0.088 A 
ATOM     46  C   UNL     1       4.090 -14.745  -3.101  1.00  0.00    +0.088 A 
ATOM     47  C   UNL     1       5.424 -14.782  -2.683  1.00  0.00    +0.269 A 
BRANCH  47  48
ATOM     48  N   UNL     1       5.748 -15.175  -1.306  1.00  0.00    +0.062 N 
ATOM     49  O   UNL     1       4.854 -15.073  -0.454  1.00  0.00    -0.258 OA
ATOM     50  O   UNL     1       6.896 -15.581  -1.077  1.00  0.00    -0.258 OA
ENDBRANCH  47  48
ENDBRANCH  40  42
ENDBRANCH  30  38
ENDBRANCH  28  30
ENDBRANCH  23  26
ENDBRANCH  19  21
ENDBRANCH   1  19
TORSDOF 16
ENDMDL
MODEL 7
REMARK VINA RESULT:    -6.901      3.592      7.623
REMARK INTER + INTRA:         -15.317
REMARK INTER:                 -11.128
REMARK INTRA:                  -4.190
REMARK UNBOUND:                -2.163
REMARK SMILES C[C@H](NC(=O)CCC(=O)O)C(=O)N[C@@H](C)C(=O)N1CCC[C@@H]1C(=O)N[C@H](Cc1ccccc1)C(=O)Nc1ccc([N+](=O)[O-])cc1
REMARK SMILES IDX 14 1 15 2 13 3 11 4 12 5 2 7 1 8 3 9 4 10 5 11 6 13 7 14
REMARK SMILES IDX 8 15 9 16 10 17 16 19 17 20 18 21 19 22 22 23 20 24 21 25
REMARK SMILES IDX 23 26 24 27 25 28 26 30 27 31 28 32 29 33 33 34 30 35 32 36
REMARK SMILES IDX 31 37 34 38 35 39 36 40 37 42 38 43 45 44 39 45 44 46 40 47
REMARK SMILES IDX 41 48 42 49 43 50
REMARK H PARENT 13 6 3 12 10 18 25 29 36 41
ROOT
ATOM      1  C   UNL     1       1.007 -13.086  -7.317  1.00  0.00    +0.168 C 
ATOM      2  C   UNL     1       0.767 -14.569  -7.580  1.00  0.00    +0.041 C 
ENDROOT
BRANCH   1   3
ATOM      3  N   UNL     1      -0.246 -12.342  -7.395  1.00  0.00    -0.343 N 
ATOM      4  C   UNL     1      -0.505 -11.218  -6.644  1.00  0.00    +0.242 C 
ATOM      5  O   UNL     1       0.301 -10.768  -5.834  1.00  0.00    -0.273 OA
ATOM      6  H   UNL     1      -0.875 -12.571  -8.163  1.00  0.00    +0.164 HD
BRANCH   4   7
ATOM      7  C   UNL     1      -1.827 -10.517  -7.016  1.00  0.00    +0.168 C 
ATOM      8  C   UNL     1      -2.995 -11.495  -7.001  1.00  0.00    +0.041 C 
BRANCH   7   9
ATOM      9  N   UNL     1      -1.701  -9.866  -8.322  1.00  0.00    -0.345 N 
ATOM     10  C   UNL     1      -1.299  -8.555  -8.437  1.00  0.00    +0.221 C 
ATOM     11  O   UNL     1      -0.913  -7.883  -7.488  1.00  0.00    -0.275 OA
ATOM     12  H   UNL     1      -2.178 -10.300  -9.104  1.00  0.00    +0.164 HD
BRANCH  10  13
ATOM     13  C   UNL     1      -1.328  -8.047  -9.864  1.00  0.00    +0.111 C 
BRANCH  13  14
ATOM     14  C   UNL     1      -1.993  -9.043 -10.804  1.00  0.00    +0.132 C 
BRANCH  14  15
ATOM     15  C   UNL     1      -0.983  -9.660 -11.733  1.00  0.00    +0.303 C 
ATOM     16  O   UNL     1      -1.009  -9.658 -12.951  1.00  0.00    -0.252 OA
BRANCH  15  17
ATOM     17  O   UNL     1      -0.006 -10.303 -11.065  1.00  0.00    -0.481 OA
ATOM     18  H   UNL     1       0.819  -9.992 -11.492  1.00  0.00    +0.296 HD
ENDBRANCH  15  17
ENDBRANCH  14  15
ENDBRANCH  13  14
ENDBRANCH  10  13
ENDBRANCH   7   9
ENDBRANCH   4   7
ENDBRANCH   1   3
BRANCH   1  19
ATOM     19  C   UNL     1       1.953 -12.499  -8.383  1.00  0.00    +0.245 C 
ATOM     20  O   UNL     1       1.499 -11.854  -9.336  1.00  0.00    -0.272 OA
BRANCH  19  21
ATOM     21  N   UNL     1       3.301 -12.745  -8.264  1.00  0.00    -0.329 N 
ATOM     22  C   UNL     1       4.353 -11.809  -7.896  1.00  0.00    +0.120 C 
ATOM     23  C   UNL     1       3.848 -14.051  -8.614  1.00  0.00    +0.174 C 
ATOM     24  C   UNL     1       5.654 -12.564  -8.136  1.00  0.00    +0.024 C 
ATOM     25  C   UNL     1       5.249 -14.029  -8.002  1.00  0.00    +0.037 C 
BRANCH  23  26
ATOM     26  C   UNL     1       3.933 -14.240 -10.146  1.00  0.00    +0.243 C 
ATOM     27  O   UNL     1       4.115 -15.328 -10.688  1.00  0.00    -0.273 OA
ATOM     28  N   UNL     1       3.728 -13.076 -10.866  1.00  0.00    -0.342 N 
ATOM     29  H   UNL     1       3.229 -12.333 -10.388  1.00  0.00    +0.164 HD
BRANCH  28  30
ATOM     30  C   UNL     1       3.502 -13.142 -12.312  1.00  0.00    +0.176 C 
BRANCH  30  31
ATOM     31  C   UNL     1       4.460 -12.194 -13.050  1.00  0.00    +0.070 C 
BRANCH  31  32
ATOM     32  C   UNL     1       5.551 -11.640 -12.163  1.00  0.00    -0.045 A 
ATOM     33  C   UNL     1       5.336 -10.479 -11.409  1.00  0.00    +0.004 A 
ATOM     34  C   UNL     1       6.806 -12.263 -12.114  1.00  0.00    +0.004 A 
ATOM     35  C   UNL     1       6.362  -9.944 -10.629  1.00  0.00    +0.000 A 
ATOM     36  C   UNL     1       7.830 -11.726 -11.333  1.00  0.00    +0.000 A 
ATOM     37  C   UNL     1       7.609 -10.566 -10.593  1.00  0.00    +0.000 A 
ENDBRANCH  31  32
ENDBRANCH  30  31
BRANCH  30  38
ATOM     38  C   UNL     1       2.029 -12.730 -12.555  1.00  0.00    +0.247 C 
ATOM     39  O   UNL     1       1.763 -11.693 -13.164  1.00  0.00    -0.272 OA
ATOM     40  N   UNL     1       1.115 -13.653 -12.077  1.00  0.00    -0.324 N 
ATOM     41  H   UNL     1       1.499 -14.488 -11.646  1.00  0.00    +0.170 HD
BRANCH  40  42
ATOM     42  C   UNL     1      -0.290 -13.604 -12.167  1.00  0.00    +0.041 A 
ATOM     43  C   UNL     1      -1.000 -13.656 -13.369  1.00  0.00    +0.033 A 
ATOM     44  C   UNL     1      -0.998 -13.497 -10.961  1.00  0.00    +0.033 A 
ATOM     45  C   UNL     1      -2.399 -13.603 -13.375  1.00  0.00    +0.088 A 
ATOM     46  C   UNL     1      -2.397 -13.445 -10.953  1.00  0.00    +0.088 A 
ATOM     47  C   UNL     1      -3.093 -13.498 -12.165  1.00  0.00    +0.269 A 
BRANCH  47  48
ATOM     48  N   UNL     1      -4.560 -13.445 -12.166  1.00  0.00    +0.062 N 
ATOM     49  O   UNL     1      -5.149 -13.825 -13.188  1.00  0.00    -0.258 OA
ATOM     50  O   UNL     1      -5.123 -13.021 -11.147  1.00  0.00    -0.258 OA
ENDBRANCH  47  48
ENDBRANCH  40  42
ENDBRANCH  30  38
ENDBRANCH  28  30
ENDBRANCH  23  26
ENDBRANCH  19  21
ENDBRANCH   1  19
TORSDOF 16
ENDMDL
MODEL 8
REMARK VINA RESULT:    -6.855      4.311      8.670
REMARK INTER + INTRA:         -15.230
REMARK INTER:                 -12.685
REMARK INTRA:                  -2.545
REMARK UNBOUND:                -2.163
REMARK SMILES C[C@H](NC(=O)CCC(=O)O)C(=O)N[C@@H](C)C(=O)N1CCC[C@@H]1C(=O)N[C@H](Cc1ccccc1)C(=O)Nc1ccc([N+](=O)[O-])cc1
REMARK SMILES IDX 14 1 15 2 13 3 11 4 12 5 2 7 1 8 3 9 4 10 5 11 6 13 7 14
REMARK SMILES IDX 8 15 9 16 10 17 16 19 17 20 18 21 19 22 22 23 20 24 21 25
REMARK SMILES IDX 23 26 24 27 25 28 26 30 27 31 28 32 29 33 33 34 30 35 32 36
REMARK SMILES IDX 31 37 34 38 35 39 36 40 37 42 38 43 45 44 39 45 44 46 40 47
REMARK SMILES IDX 41 48 42 49 43 50
REMARK H PARENT 13 6 3 12 10 18 25 29 36 41
ROOT
ATOM      1  C   UNL     1       0.128 -12.117  -9.458  1.00  0.00    +0.168 C 
ATOM      2  C   UNL     1       1.514 -11.933 -10.067  1.00  0.00    +0.041 C 
ENDROOT
BRANCH   1   3
ATOM      3  N   UNL     1      -0.905 -11.701 -10.401  1.00  0.00    -0.343 N 
ATOM      4  C   UNL     1      -2.129 -12.322 -10.502  1.00  0.00    +0.242 C 
ATOM      5  O   UNL     1      -2.435 -13.290  -9.812  1.00  0.00    -0.273 OA
ATOM      6  H   UNL     1      -0.770 -10.809 -10.874  1.00  0.00    +0.164 HD
BRANCH   4   7
ATOM      7  C   UNL     1      -3.109 -11.606 -11.455  1.00  0.00    +0.168 C 
ATOM      8  C   UNL     1      -4.267 -12.515 -11.844  1.00  0.00    +0.041 C 
BRANCH   7   9
ATOM      9  N   UNL     1      -2.395 -11.124 -12.640  1.00  0.00    -0.345 N 
ATOM     10  C   UNL     1      -2.812 -10.007 -13.327  1.00  0.00    +0.221 C 
ATOM     11  O   UNL     1      -3.720  -9.280 -12.944  1.00  0.00    -0.275 OA
ATOM     12  H   UNL     1      -1.771 -11.776 -13.102  1.00  0.00    +0.164 HD
BRANCH  10  13
ATOM     13  C   UNL     1      -1.996  -9.737 -14.575  1.00  0.00    +0.111 C 
BRANCH  13  14
ATOM     14  C   UNL     1      -2.650 -10.331 -15.816  1.00  0.00    +0.132 C 
BRANCH  14  15
ATOM     15  C   UNL     1      -3.263  -9.254 -16.667  1.00  0.00    +0.303 C 
ATOM     16  O   UNL     1      -3.077  -9.063 -17.856  1.00  0.00    -0.252 OA
BRANCH  15  17
ATOM     17  O   UNL     1      -4.050  -8.428 -15.951  1.00  0.00    -0.481 OA
ATOM     18  H   UNL     1      -4.829  -8.978 -15.723  1.00  0.00    +0.296 HD
ENDBRANCH  15  17
ENDBRANCH  14  15
ENDBRANCH  13  14
ENDBRANCH  10  13
ENDBRANCH   7   9
ENDBRANCH   4   7
ENDBRANCH   1   3
BRANCH   1  19
ATOM     19  C   UNL     1      -0.024 -11.241  -8.199  1.00  0.00    +0.245 C 
ATOM     20  O   UNL     1       0.254 -10.036  -8.237  1.00  0.00    -0.272 OA
BRANCH  19  21
ATOM     21  N   UNL     1      -0.438 -11.842  -7.033  1.00  0.00    -0.329 N 
ATOM     22  C   UNL     1       0.017 -13.102  -6.466  1.00  0.00    +0.120 C 
ATOM     23  C   UNL     1      -1.524 -11.265  -6.248  1.00  0.00    +0.174 C 
ATOM     24  C   UNL     1      -0.928 -13.375  -5.302  1.00  0.00    +0.024 C 
ATOM     25  C   UNL     1      -1.417 -11.985  -4.904  1.00  0.00    +0.037 C 
BRANCH  23  26
ATOM     26  C   UNL     1      -2.900 -11.538  -6.896  1.00  0.00    +0.243 C 
ATOM     27  O   UNL     1      -3.446 -10.767  -7.684  1.00  0.00    -0.273 OA
ATOM     28  N   UNL     1      -3.449 -12.762  -6.554  1.00  0.00    -0.342 N 
ATOM     29  H   UNL     1      -2.801 -13.468  -6.224  1.00  0.00    +0.164 HD
BRANCH  28  30
ATOM     30  C   UNL     1      -4.601 -13.279  -7.297  1.00  0.00    +0.176 C 
BRANCH  30  31
ATOM     31  C   UNL     1      -5.854 -13.287  -6.408  1.00  0.00    +0.070 C 
BRANCH  31  32
ATOM     32  C   UNL     1      -7.008 -12.509  -6.997  1.00  0.00    -0.045 A 
ATOM     33  C   UNL     1      -7.975 -13.152  -7.780  1.00  0.00    +0.004 A 
ATOM     34  C   UNL     1      -7.103 -11.125  -6.796  1.00  0.00    +0.004 A 
ATOM     35  C   UNL     1      -9.012 -12.422  -8.362  1.00  0.00    +0.000 A 
ATOM     36  C   UNL     1      -8.142 -10.398  -7.378  1.00  0.00    +0.000 A 
ATOM     37  C   UNL     1      -9.093 -11.046  -8.163  1.00  0.00    +0.000 A 
ENDBRANCH  31  32
ENDBRANCH  30  31
BRANCH  30  38
ATOM     38  C   UNL     1      -4.238 -14.716  -7.744  1.00  0.00    +0.247 C 
ATOM     39  O   UNL     1      -5.065 -15.416  -8.330  1.00  0.00    -0.272 OA
ATOM     40  N   UNL     1      -2.927 -15.064  -7.466  1.00  0.00    -0.324 N 
ATOM     41  H   UNL     1      -2.354 -14.350  -7.026  1.00  0.00    +0.170 HD
BRANCH  40  42
ATOM     42  C   UNL     1      -2.270 -16.271  -7.772  1.00  0.00    +0.041 A 
ATOM     43  C   UNL     1      -2.526 -17.035  -8.913  1.00  0.00    +0.033 A 
ATOM     44  C   UNL     1      -1.302 -16.714  -6.858  1.00  0.00    +0.033 A 
ATOM     45  C   UNL     1      -1.827 -18.226  -9.147  1.00  0.00    +0.088 A 
ATOM     46  C   UNL     1      -0.596 -17.901  -7.080  1.00  0.00    +0.088 A 
ATOM     47  C   UNL     1      -0.863 -18.655  -8.228  1.00  0.00    +0.269 A 
BRANCH  47  48
ATOM     48  N   UNL     1      -0.126 -19.901  -8.471  1.00  0.00    +0.062 N 
ATOM     49  O   UNL     1       1.107 -19.830  -8.576  1.00  0.00    -0.258 OA
ATOM     50  O   UNL     1      -0.780 -20.950  -8.558  1.00  0.00    -0.258 OA
ENDBRANCH  47  48
ENDBRANCH  40  42
ENDBRANCH  30  38
ENDBRANCH  28  30
ENDBRANCH  23  26
ENDBRANCH  19  21
ENDBRANCH   1  19
TORSDOF 16
ENDMDL
MODEL 9
REMARK VINA RESULT:    -6.735      3.513      6.870
REMARK INTER + INTRA:         -15.001
REMARK INTER:                 -11.338
REMARK INTRA:                  -3.662
REMARK UNBOUND:                -2.163
REMARK SMILES C[C@H](NC(=O)CCC(=O)O)C(=O)N[C@@H](C)C(=O)N1CCC[C@@H]1C(=O)N[C@H](Cc1ccccc1)C(=O)Nc1ccc([N+](=O)[O-])cc1
REMARK SMILES IDX 14 1 15 2 13 3 11 4 12 5 2 7 1 8 3 9 4 10 5 11 6 13 7 14
REMARK SMILES IDX 8 15 9 16 10 17 16 19 17 20 18 21 19 22 22 23 20 24 21 25
REMARK SMILES IDX 23 26 24 27 25 28 26 30 27 31 28 32 29 33 33 34 30 35 32 36
REMARK SMILES IDX 31 37 34 38 35 39 36 40 37 42 38 43 45 44 39 45 44 46 40 47
REMARK SMILES IDX 41 48 42 49 43 50
REMARK H PARENT 13 6 3 12 10 18 25 29 36 41
ROOT
ATOM      1  C   UNL     1      -1.974  -9.533  -9.402  1.00  0.00    +0.168 C 
ATOM      2  C   UNL     1      -2.003  -8.009  -9.366  1.00  0.00    +0.041 C 
ENDROOT
BRANCH   1   3
ATOM      3  N   UNL     1      -1.339 -10.062  -8.200  1.00  0.00    -0.343 N 
ATOM      4  C   UNL     1      -2.010 -10.807  -7.257  1.00  0.00    +0.242 C 
ATOM      5  O   UNL     1      -3.207 -11.066  -7.353  1.00  0.00    -0.273 OA
ATOM      6  H   UNL     1      -0.322 -10.021  -8.155  1.00  0.00    +0.164 HD
BRANCH   4   7
ATOM      7  C   UNL     1      -1.093 -11.387  -6.160  1.00  0.00    +0.168 C 
ATOM      8  C   UNL     1       0.273 -10.715  -6.169  1.00  0.00    +0.041 C 
BRANCH   7   9
ATOM      9  N   UNL     1      -0.969 -12.838  -6.325  1.00  0.00    -0.345 N 
ATOM     10  C   UNL     1      -0.602 -13.652  -5.278  1.00  0.00    +0.221 C 
ATOM     11  O   UNL     1      -0.466 -13.252  -4.128  1.00  0.00    -0.275 OA
ATOM     12  H   UNL     1      -0.882 -13.190  -7.271  1.00  0.00    +0.164 HD
BRANCH  10  13
ATOM     13  C   UNL     1      -0.437 -15.103  -5.682  1.00  0.00    +0.111 C 
BRANCH  13  14
ATOM     14  C   UNL     1      -1.165 -15.412  -6.984  1.00  0.00    +0.132 C 
BRANCH  14  15
ATOM     15  C   UNL     1      -1.605 -16.849  -7.025  1.00  0.00    +0.303 C 
ATOM     16  O   UNL     1      -2.629 -17.290  -7.516  1.00  0.00    -0.252 OA
BRANCH  15  17
ATOM     17  O   UNL     1      -0.742 -17.662  -6.385  1.00  0.00    -0.481 OA
ATOM     18  H   UNL     1      -0.782 -18.500  -6.893  1.00  0.00    +0.296 HD
ENDBRANCH  15  17
ENDBRANCH  14  15
ENDBRANCH  13  14
ENDBRANCH  10  13
ENDBRANCH   7   9
ENDBRANCH   4   7
ENDBRANCH   1   3
BRANCH   1  19
ATOM     19  C   UNL     1      -1.149 -10.024 -10.608  1.00  0.00    +0.245 C 
ATOM     20  O   UNL     1      -0.502  -9.223 -11.293  1.00  0.00    -0.272 OA
BRANCH  19  21
ATOM     21  N   UNL     1      -1.184 -11.364 -10.919  1.00  0.00    -0.329 N 
ATOM     22  C   UNL     1      -2.327 -12.264 -10.870  1.00  0.00    +0.120 C 
ATOM     23  C   UNL     1       0.041 -12.076 -11.265  1.00  0.00    +0.174 C 
ATOM     24  C   UNL     1      -1.745 -13.653 -11.102  1.00  0.00    +0.024 C 
ATOM     25  C   UNL     1      -0.464 -13.378 -11.885  1.00  0.00    +0.037 C 
BRANCH  23  26
ATOM     26  C   UNL     1       0.898 -12.373 -10.013  1.00  0.00    +0.243 C 
ATOM     27  O   UNL     1       0.436 -12.810  -8.960  1.00  0.00    -0.273 OA
ATOM     28  N   UNL     1       2.253 -12.157 -10.197  1.00  0.00    -0.342 N 
ATOM     29  H   UNL     1       2.584 -12.165 -11.155  1.00  0.00    +0.164 HD
BRANCH  28  30
ATOM     30  C   UNL     1       3.213 -12.653  -9.207  1.00  0.00    +0.176 C 
BRANCH  30  31
ATOM     31  C   UNL     1       3.329 -11.672  -8.032  1.00  0.00    +0.070 C 
BRANCH  31  32
ATOM     32  C   UNL     1       3.613 -12.352  -6.713  1.00  0.00    -0.045 A 
ATOM     33  C   UNL     1       4.574 -11.833  -5.836  1.00  0.00    +0.004 A 
ATOM     34  C   UNL     1       2.944 -13.535  -6.368  1.00  0.00    +0.004 A 
ATOM     35  C   UNL     1       4.869 -12.491  -4.640  1.00  0.00    +0.000 A 
ATOM     36  C   UNL     1       3.240 -14.191  -5.173  1.00  0.00    +0.000 A 
ATOM     37  C   UNL     1       4.203 -13.670  -4.311  1.00  0.00    +0.000 A 
ENDBRANCH  31  32
ENDBRANCH  30  31
BRANCH  30  38
ATOM     38  C   UNL     1       4.572 -12.799  -9.935  1.00  0.00    +0.247 C 
ATOM     39  O   UNL     1       5.116 -13.900 -10.026  1.00  0.00    -0.272 OA
ATOM     40  N   UNL     1       5.032 -11.614 -10.482  1.00  0.00    -0.324 N 
ATOM     41  H   UNL     1       4.436 -10.800 -10.366  1.00  0.00    +0.170 HD
BRANCH  40  42
ATOM     42  C   UNL     1       6.205 -11.407 -11.234  1.00  0.00    +0.041 A 
ATOM     43  C   UNL     1       6.299 -11.621 -12.612  1.00  0.00    +0.033 A 
ATOM     44  C   UNL     1       7.335 -10.960 -10.534  1.00  0.00    +0.033 A 
ATOM     45  C   UNL     1       7.503 -11.390 -13.289  1.00  0.00    +0.088 A 
ATOM     46  C   UNL     1       8.544 -10.725 -11.200  1.00  0.00    +0.088 A 
ATOM     47  C   UNL     1       8.623 -10.942 -12.579  1.00  0.00    +0.269 A 
BRANCH  47  48
ATOM     48  N   UNL     1       9.886 -10.697 -13.286  1.00  0.00    +0.062 N 
ATOM     49  O   UNL     1       9.822 -10.262 -14.444  1.00  0.00    -0.258 OA
ATOM     50  O   UNL     1      10.941 -10.943 -12.683  1.00  0.00    -0.258 OA
ENDBRANCH  47  48
ENDBRANCH  40  42
ENDBRANCH  30  38
ENDBRANCH  28  30
ENDBRANCH  23  26
ENDBRANCH  19  21
ENDBRANCH   1  19
TORSDOF 16
ENDMDL
