MODEL 1
REMARK VINA RESULT:    -5.918      0.000      0.000
REMARK INTER + INTRA:         -10.481
REMARK INTER:                  -8.686
REMARK INTRA:                  -1.795
REMARK UNBOUND:                -1.795
REMARK SMILES O=S(=O)(O)OC[C@@H]1O[C@H](O[C@H]2[C@@H]3OC[C@H]2O[C@@H](O)[C@H]3O)[C@@H](O)[C@H](O)[C@@H]1O
REMARK SMILES IDX 9 1 21 2 23 3 25 4 7 5 8 6 10 7 11 8 14 9 15 10 13 11 16 12
REMARK SMILES IDX 12 13 17 14 19 15 18 16 20 18 22 20 24 22 6 24 5 25 2 26
REMARK SMILES IDX 1 27 3 28 4 29 26 31
REMARK H PARENT 18 17 20 19 22 21 24 23 4 30 26 32
ROOT
ATOM      1  C   UNL     1       0.060  15.216   4.419  1.00  0.00    +0.282 C 
ATOM      2  C   UNL     1      -1.234  15.255   5.255  1.00  0.00    +0.202 C 
ATOM      3  C   UNL     1      -2.403  14.951   4.333  1.00  0.00    +0.179 C 
ATOM      4  C   UNL     1      -2.272  13.520   3.805  1.00  0.00    +0.177 C 
ATOM      5  C   UNL     1      -0.805  13.112   3.527  1.00  0.00    +0.180 C 
ATOM      6  O   UNL     1       0.060  14.252   3.368  1.00  0.00    -0.341 OA
ENDROOT
BRANCH   1   7
ATOM      7  O   UNL     1       1.159  15.064   5.322  1.00  0.00    -0.341 OA
BRANCH   7   8
ATOM      8  C   UNL     1       1.828  16.291   5.595  1.00  0.00    +0.184 C 
ATOM      9  C   UNL     1       3.752  17.619   5.759  1.00  0.00    +0.195 C 
ATOM     10  C   UNL     1       3.223  16.401   5.001  1.00  0.00    +0.179 C 
ATOM     11  O   UNL     1       3.134  17.568   7.071  1.00  0.00    -0.370 OA
ATOM     12  O   UNL     1       3.974  15.200   5.257  1.00  0.00    -0.342 OA
ATOM     13  C   UNL     1       2.229  16.434   7.058  1.00  0.00    +0.184 C 
ATOM     14  C   UNL     1       4.171  14.860   6.626  1.00  0.00    +0.279 C 
ATOM     15  C   UNL     1       2.959  15.170   7.533  1.00  0.00    +0.202 C 
BRANCH  14  16
ATOM     16  O   UNL     1       5.333  15.534   7.102  1.00  0.00    -0.366 OA
ATOM     17  H   UNL     1       6.026  15.314   6.455  1.00  0.00    +0.213 HD
ENDBRANCH  14  16
BRANCH  15  18
ATOM     18  O   UNL     1       3.369  15.315   8.899  1.00  0.00    -0.385 OA
ATOM     19  H   UNL     1       3.169  16.253   9.107  1.00  0.00    +0.211 HD
ENDBRANCH  15  18
ENDBRANCH   7   8
ENDBRANCH   1   7
BRANCH   2  20
ATOM     20  O   UNL     1      -1.432  16.545   5.858  1.00  0.00    -0.385 OA
ATOM     21  H   UNL     1      -2.259  16.479   6.373  1.00  0.00    +0.211 HD
ENDBRANCH   2  20
BRANCH   3  22
ATOM     22  O   UNL     1      -3.647  15.082   5.041  1.00  0.00    -0.387 OA
ATOM     23  H   UNL     1      -3.534  14.539   5.849  1.00  0.00    +0.211 HD
ENDBRANCH   3  22
BRANCH   5  24
ATOM     24  C   UNL     1      -0.218  12.080   4.508  1.00  0.00    +0.220 C 
BRANCH  24  25
ATOM     25  O   UNL     1       0.899  11.449   3.885  1.00  0.00    -0.245 OA
BRANCH  25  26
ATOM     26  S   UNL     1       2.357  11.640   4.573  1.00  0.00    +0.397 S 
ATOM     27  O   UNL     1       3.269  10.631   4.086  1.00  0.00    -0.169 OA
ATOM     28  O   UNL     1       2.164  11.889   5.983  1.00  0.00    -0.169 OA
BRANCH  26  29
ATOM     29  O   UNL     1       2.827  13.056   3.968  1.00  0.00    -0.264 OA
ATOM     30  H   UNL     1       2.663  13.730   4.659  1.00  0.00    +0.236 HD
ENDBRANCH  26  29
ENDBRANCH  25  26
ENDBRANCH  24  25
ENDBRANCH   5  24
BRANCH   4  31
ATOM     31  O   UNL     1      -2.900  12.621   4.725  1.00  0.00    -0.387 OA
ATOM     32  H   UNL     1      -3.775  13.026   4.915  1.00  0.00    +0.211 HD
ENDBRANCH   4  31
TORSDOF 11
ENDMDL
MODEL 2
REMARK VINA RESULT:    -5.708      6.996     10.631
REMARK INTER + INTRA:         -10.172
REMARK INTER:                  -8.979
REMARK INTRA:                  -1.193
REMARK UNBOUND:                -1.795
REMARK SMILES O=S(=O)(O)OC[C@@H]1O[C@H](O[C@H]2[C@@H]3OC[C@H]2O[C@@H](O)[C@H]3O)[C@@H](O)[C@H](O)[C@@H]1O
REMARK SMILES IDX 9 1 21 2 23 3 25 4 7 5 8 6 10 7 11 8 14 9 15 10 13 11 16 12
REMARK SMILES IDX 12 13 17 14 19 15 18 16 20 18 22 20 24 22 6 24 5 25 2 26
REMARK SMILES IDX 1 27 3 28 4 29 26 31
REMARK H PARENT 18 17 20 19 22 21 24 23 4 30 26 32
ROOT
ATOM      1  C   UNL     1      -0.536  11.791  -2.470  1.00  0.00    +0.282 C 
ATOM      2  C   UNL     1       0.227  10.627  -1.808  1.00  0.00    +0.202 C 
ATOM      3  C   UNL     1       1.266  11.215  -0.869  1.00  0.00    +0.179 C 
ATOM      4  C   UNL     1       0.558  11.967   0.262  1.00  0.00    +0.177 C 
ATOM      5  C   UNL     1      -0.716  12.706  -0.211  1.00  0.00    +0.180 C 
ATOM      6  O   UNL     1      -0.723  12.931  -1.634  1.00  0.00    -0.341 OA
ENDROOT
BRANCH   1   7
ATOM      7  O   UNL     1      -1.762  11.270  -2.992  1.00  0.00    -0.341 OA
BRANCH   7   8
ATOM      8  C   UNL     1      -1.772  11.193  -4.414  1.00  0.00    +0.184 C 
ATOM      9  C   UNL     1      -2.591  11.802  -6.524  1.00  0.00    +0.195 C 
ATOM     10  C   UNL     1      -2.447  12.365  -5.109  1.00  0.00    +0.179 C 
ATOM     11  O   UNL     1      -2.795  10.374  -6.363  1.00  0.00    -0.370 OA
ATOM     12  O   UNL     1      -3.707  12.662  -4.483  1.00  0.00    -0.342 OA
ATOM     13  C   UNL     1      -2.693  10.099  -4.942  1.00  0.00    +0.184 C 
ATOM     14  C   UNL     1      -4.673  11.616  -4.481  1.00  0.00    +0.279 C 
ATOM     15  C   UNL     1      -4.074  10.206  -4.281  1.00  0.00    +0.202 C 
BRANCH  14  16
ATOM     16  O   UNL     1      -5.411  11.673  -5.699  1.00  0.00    -0.366 OA
ATOM     17  H   UNL     1      -4.829  11.255  -6.358  1.00  0.00    +0.213 HD
ENDBRANCH  14  16
BRANCH  15  18
ATOM     18  O   UNL     1      -4.953   9.200  -4.801  1.00  0.00    -0.385 OA
ATOM     19  H   UNL     1      -4.378   8.412  -4.902  1.00  0.00    +0.211 HD
ENDBRANCH  15  18
ENDBRANCH   7   8
ENDBRANCH   1   7
BRANCH   2  20
ATOM     20  O   UNL     1       0.887   9.807  -2.788  1.00  0.00    -0.385 OA
ATOM     21  H   UNL     1       0.647  10.180  -3.659  1.00  0.00    +0.211 HD
ENDBRANCH   2  20
BRANCH   3  22
ATOM     22  O   UNL     1       2.081  10.173  -0.307  1.00  0.00    -0.387 OA
ATOM     23  H   UNL     1       1.560   9.828   0.449  1.00  0.00    +0.211 HD
ENDBRANCH   3  22
BRANCH   5  24
ATOM     24  C   UNL     1      -2.043  12.098   0.279  1.00  0.00    +0.220 C 
BRANCH  24  25
ATOM     25  O   UNL     1      -2.364  12.672   1.544  1.00  0.00    -0.245 OA
BRANCH  25  26
ATOM     26  S   UNL     1      -3.079  11.721   2.648  1.00  0.00    +0.397 S 
ATOM     27  O   UNL     1      -4.104  10.919   2.019  1.00  0.00    -0.169 OA
ATOM     28  O   UNL     1      -3.337  12.512   3.829  1.00  0.00    -0.169 OA
BRANCH  26  29
ATOM     29  O   UNL     1      -1.877  10.736   3.068  1.00  0.00    -0.264 OA
ATOM     30  H   UNL     1      -1.583  11.011   3.961  1.00  0.00    +0.236 HD
ENDBRANCH  26  29
ENDBRANCH  25  26
ENDBRANCH  24  25
ENDBRANCH   5  24
BRANCH   4  31
ATOM     31  O   UNL     1       0.269  11.052   1.324  1.00  0.00    -0.387 OA
ATOM     32  H   UNL     1       0.201  10.173   0.888  1.00  0.00    +0.211 HD
ENDBRANCH   4  31
TORSDOF 11
ENDMDL
MODEL 3
REMARK VINA RESULT:    -5.632     19.785     22.352
REMARK INTER + INTRA:         -10.061
REMARK INTER:                  -8.843
REMARK INTRA:                  -1.218
REMARK UNBOUND:                -1.795
REMARK SMILES O=S(=O)(O)OC[C@@H]1O[C@H](O[C@H]2[C@@H]3OC[C@H]2O[C@@H](O)[C@H]3O)[C@@H](O)[C@H](O)[C@@H]1O
REMARK SMILES IDX 9 1 21 2 23 3 25 4 7 5 8 6 10 7 11 8 14 9 15 10 13 11 16 12
REMARK SMILES IDX 12 13 17 14 19 15 18 16 20 18 22 20 24 22 6 24 5 25 2 26
REMARK SMILES IDX 1 27 3 28 4 29 26 31
REMARK H PARENT 18 17 20 19 22 21 24 23 4 30 26 32
ROOT
ATOM      1  C   UNL     1      13.573   0.985  18.502  1.00  0.00    +0.282 C 
ATOM      2  C   UNL     1      12.915  -0.298  17.958  1.00  0.00    +0.202 C 
ATOM      3  C   UNL     1      13.408  -1.472  18.787  1.00  0.00    +0.179 C 
ATOM      4  C   UNL     1      12.920  -1.313  20.229  1.00  0.00    +0.177 C 
ATOM      5  C   UNL     1      12.917   0.159  20.706  1.00  0.00    +0.180 C 
ATOM      6  O   UNL     1      13.782   0.994  19.913  1.00  0.00    -0.341 OA
ENDROOT
BRANCH   1   7
ATOM      7  O   UNL     1      12.806   2.100  18.040  1.00  0.00    -0.341 OA
BRANCH   7   8
ATOM      8  C   UNL     1      13.449   2.821  16.994  1.00  0.00    +0.184 C 
ATOM      9  C   UNL     1      14.828   4.540  16.195  1.00  0.00    +0.195 C 
ATOM     10  C   UNL     1      14.627   3.674  17.440  1.00  0.00    +0.179 C 
ATOM     11  O   UNL     1      13.506   4.730  15.628  1.00  0.00    -0.370 OA
ATOM     12  O   UNL     1      14.283   4.433  18.613  1.00  0.00    -0.342 OA
ATOM     13  C   UNL     1      12.590   3.953  16.441  1.00  0.00    +0.184 C 
ATOM     14  C   UNL     1      13.190   5.336  18.481  1.00  0.00    +0.279 C 
ATOM     15  C   UNL     1      12.043   4.812  17.589  1.00  0.00    +0.202 C 
BRANCH  14  16
ATOM     16  O   UNL     1      13.681   6.577  17.980  1.00  0.00    -0.366 OA
ATOM     17  H   UNL     1      13.340   7.244  18.602  1.00  0.00    +0.213 HD
ENDBRANCH  14  16
BRANCH  15  18
ATOM     18  O   UNL     1      11.263   5.898  17.070  1.00  0.00    -0.385 OA
ATOM     19  H   UNL     1      10.651   5.467  16.436  1.00  0.00    +0.211 HD
ENDBRANCH  15  18
ENDBRANCH   7   8
ENDBRANCH   1   7
BRANCH   2  20
ATOM     20  O   UNL     1      13.255  -0.518  16.578  1.00  0.00    -0.385 OA
ATOM     21  H   UNL     1      13.129  -1.474  16.418  1.00  0.00    +0.211 HD
ENDBRANCH   2  20
BRANCH   3  22
ATOM     22  O   UNL     1      12.908  -2.709  18.251  1.00  0.00    -0.387 OA
ATOM     23  H   UNL     1      13.550  -3.388  18.549  1.00  0.00    +0.211 HD
ENDBRANCH   3  22
BRANCH   5  24
ATOM     24  C   UNL     1      11.521   0.785  20.884  1.00  0.00    +0.220 C 
BRANCH  24  25
ATOM     25  O   UNL     1      11.066   0.507  22.206  1.00  0.00    -0.245 OA
BRANCH  25  26
ATOM     26  S   UNL     1       9.480   0.229  22.417  1.00  0.00    +0.397 S 
ATOM     27  O   UNL     1       9.199   0.020  23.819  1.00  0.00    -0.169 OA
ATOM     28  O   UNL     1       9.042  -0.696  21.397  1.00  0.00    -0.169 OA
BRANCH  26  29
ATOM     29  O   UNL     1       8.834   1.642  21.994  1.00  0.00    -0.264 OA
ATOM     30  H   UNL     1       7.870   1.499  21.906  1.00  0.00    +0.236 HD
ENDBRANCH  26  29
ENDBRANCH  25  26
ENDBRANCH  24  25
ENDBRANCH   5  24
BRANCH   4  31
ATOM     31  O   UNL     1      11.622  -1.906  20.353  1.00  0.00    -0.387 OA
ATOM     32  H   UNL     1      11.717  -2.570  21.073  1.00  0.00    +0.211 HD
ENDBRANCH   4  31
TORSDOF 11
ENDMDL
MODEL 4
REMARK VINA RESULT:    -5.568      3.706      6.780
REMARK INTER + INTRA:          -9.967
REMARK INTER:                  -8.682
REMARK INTRA:                  -1.285
REMARK UNBOUND:                -1.795
REMARK SMILES O=S(=O)(O)OC[C@@H]1O[C@H](O[C@H]2[C@@H]3OC[C@H]2O[C@@H](O)[C@H]3O)[C@@H](O)[C@H](O)[C@@H]1O
REMARK SMILES IDX 9 1 21 2 23 3 25 4 7 5 8 6 10 7 11 8 14 9 15 10 13 11 16 12
REMARK SMILES IDX 12 13 17 14 19 15 18 16 20 18 22 20 24 22 6 24 5 25 2 26
REMARK SMILES IDX 1 27 3 28 4 29 26 31
REMARK H PARENT 18 17 20 19 22 21 24 23 4 30 26 32
ROOT
ATOM      1  C   UNL     1       0.284  11.940   2.668  1.00  0.00    +0.282 C 
ATOM      2  C   UNL     1      -0.681  12.829   3.475  1.00  0.00    +0.202 C 
ATOM      3  C   UNL     1      -0.458  12.552   4.952  1.00  0.00    +0.179 C 
ATOM      4  C   UNL     1       0.958  12.988   5.339  1.00  0.00    +0.177 C 
ATOM      5  C   UNL     1       1.999  12.715   4.227  1.00  0.00    +0.180 C 
ATOM      6  O   UNL     1       1.549  11.718   3.289  1.00  0.00    -0.341 OA
ENDROOT
BRANCH   1   7
ATOM      7  O   UNL     1       0.393  12.493   1.353  1.00  0.00    -0.341 OA
BRANCH   7   8
ATOM      8  C   UNL     1      -0.008  11.584   0.333  1.00  0.00    +0.184 C 
ATOM      9  C   UNL     1       0.423  10.214  -1.519  1.00  0.00    +0.195 C 
ATOM     10  C   UNL     1       1.126  10.780  -0.284  1.00  0.00    +0.179 C 
ATOM     11  O   UNL     1      -0.536  11.224  -1.927  1.00  0.00    -0.370 OA
ATOM     12  O   UNL     1       2.235  11.639  -0.603  1.00  0.00    -0.342 OA
ATOM     13  C   UNL     1      -0.463  12.286  -0.941  1.00  0.00    +0.184 C 
ATOM     14  C   UNL     1       1.972  12.692  -1.524  1.00  0.00    +0.279 C 
ATOM     15  C   UNL     1       0.575  13.333  -1.367  1.00  0.00    +0.202 C 
BRANCH  14  16
ATOM     16  O   UNL     1       2.144  12.195  -2.849  1.00  0.00    -0.366 OA
ATOM     17  H   UNL     1       1.601  12.783  -3.403  1.00  0.00    +0.213 HD
ENDBRANCH  14  16
BRANCH  15  18
ATOM     18  O   UNL     1       0.167  13.971  -2.584  1.00  0.00    -0.385 OA
ATOM     19  H   UNL     1      -0.687  13.540  -2.803  1.00  0.00    +0.211 HD
ENDBRANCH  15  18
ENDBRANCH   7   8
ENDBRANCH   1   7
BRANCH   2  20
ATOM     20  O   UNL     1      -2.053  12.549   3.145  1.00  0.00    -0.385 OA
ATOM     21  H   UNL     1      -2.029  11.873   2.439  1.00  0.00    +0.211 HD
ENDBRANCH   2  20
BRANCH   3  22
ATOM     22  O   UNL     1      -1.410  13.277   5.748  1.00  0.00    -0.387 OA
ATOM     23  H   UNL     1      -1.672  14.041   5.191  1.00  0.00    +0.211 HD
ENDBRANCH   3  22
BRANCH   5  24
ATOM     24  C   UNL     1       2.539  13.969   3.516  1.00  0.00    +0.220 C 
BRANCH  24  25
ATOM     25  O   UNL     1       3.843  14.248   4.020  1.00  0.00    -0.245 OA
BRANCH  25  26
ATOM     26  S   UNL     1       4.019  15.534   4.995  1.00  0.00    +0.397 S 
ATOM     27  O   UNL     1       2.900  16.433   4.833  1.00  0.00    -0.169 OA
ATOM     28  O   UNL     1       5.389  15.986   4.907  1.00  0.00    -0.169 OA
BRANCH  26  29
ATOM     29  O   UNL     1       3.901  14.865   6.454  1.00  0.00    -0.264 OA
ATOM     30  H   UNL     1       3.258  14.131   6.380  1.00  0.00    +0.236 HD
ENDBRANCH  26  29
ENDBRANCH  25  26
ENDBRANCH  24  25
ENDBRANCH   5  24
BRANCH   4  31
ATOM     31  O   UNL     1       0.938  14.372   5.709  1.00  0.00    -0.387 OA
ATOM     32  H   UNL     1       1.822  14.715   5.446  1.00  0.00    +0.211 HD
ENDBRANCH   4  31
TORSDOF 11
ENDMDL
MODEL 5
REMARK VINA RESULT:    -5.544      3.507      6.282
REMARK INTER + INTRA:          -9.932
REMARK INTER:                  -8.837
REMARK INTRA:                  -1.094
REMARK UNBOUND:                -1.795
REMARK SMILES O=S(=O)(O)OC[C@@H]1O[C@H](O[C@H]2[C@@H]3OC[C@H]2O[C@@H](O)[C@H]3O)[C@@H](O)[C@H](O)[C@@H]1O
REMARK SMILES IDX 9 1 21 2 23 3 25 4 7 5 8 6 10 7 11 8 14 9 15 10 13 11 16 12
REMARK SMILES IDX 12 13 17 14 19 15 18 16 20 18 22 20 24 22 6 24 5 25 2 26
REMARK SMILES IDX 1 27 3 28 4 29 26 31
REMARK H PARENT 18 17 20 19 22 21 24 23 4 30 26 32
ROOT
ATOM      1  C   UNL     1      -1.970  12.583   1.962  1.00  0.00    +0.282 C 
ATOM      2  C   UNL     1      -2.188  13.870   2.781  1.00  0.00    +0.202 C 
ATOM      3  C   UNL     1      -2.813  13.486   4.111  1.00  0.00    +0.179 C 
ATOM      4  C   UNL     1      -1.824  12.630   4.906  1.00  0.00    +0.177 C 
ATOM      5  C   UNL     1      -1.003  11.670   4.012  1.00  0.00    +0.180 C 
ATOM      6  O   UNL     1      -1.632  11.435   2.738  1.00  0.00    -0.341 OA
ENDROOT
BRANCH   1   7
ATOM      7  O   UNL     1      -1.013  12.872   0.939  1.00  0.00    -0.341 OA
BRANCH   7   8
ATOM      8  C   UNL     1      -0.670  11.730   0.161  1.00  0.00    +0.184 C 
ATOM      9  C   UNL     1       0.871  10.356  -0.950  1.00  0.00    +0.195 C 
ATOM     10  C   UNL     1       0.798  11.336   0.222  1.00  0.00    +0.179 C 
ATOM     11  O   UNL     1      -0.080  10.842  -1.932  1.00  0.00    -0.370 OA
ATOM     12  O   UNL     1       1.636  12.493   0.051  1.00  0.00    -0.342 OA
ATOM     13  C   UNL     1      -0.736  11.993  -1.339  1.00  0.00    +0.184 C 
ATOM     14  C   UNL     1       1.486  13.204  -1.173  1.00  0.00    +0.279 C 
ATOM     15  C   UNL     1       0.030  13.276  -1.686  1.00  0.00    +0.202 C 
BRANCH  14  16
ATOM     16  O   UNL     1       2.329  12.608  -2.155  1.00  0.00    -0.366 OA
ATOM     17  H   UNL     1       3.225  12.669  -1.777  1.00  0.00    +0.213 HD
ENDBRANCH  14  16
BRANCH  15  18
ATOM     18  O   UNL     1      -0.001  13.508  -3.100  1.00  0.00    -0.385 OA
ATOM     19  H   UNL     1       0.883  13.886  -3.297  1.00  0.00    +0.211 HD
ENDBRANCH  15  18
ENDBRANCH   7   8
ENDBRANCH   1   7
BRANCH   2  20
ATOM     20  O   UNL     1      -3.059  14.787   2.096  1.00  0.00    -0.385 OA
ATOM     21  H   UNL     1      -3.895  14.794   2.602  1.00  0.00    +0.211 HD
ENDBRANCH   2  20
BRANCH   3  22
ATOM     22  O   UNL     1      -3.138  14.663   4.870  1.00  0.00    -0.387 OA
ATOM     23  H   UNL     1      -2.748  15.405   4.362  1.00  0.00    +0.211 HD
ENDBRANCH   3  22
BRANCH   5  24
ATOM     24  C   UNL     1       0.485  12.035   3.858  1.00  0.00    +0.220 C 
BRANCH  24  25
ATOM     25  O   UNL     1       1.195  11.525   4.984  1.00  0.00    -0.245 OA
BRANCH  25  26
ATOM     26  S   UNL     1       2.805  11.365   4.855  1.00  0.00    +0.397 S 
ATOM     27  O   UNL     1       3.127  10.462   3.773  1.00  0.00    -0.169 OA
ATOM     28  O   UNL     1       3.353  11.203   6.182  1.00  0.00    -0.169 OA
BRANCH  26  29
ATOM     29  O   UNL     1       3.252  12.845   4.404  1.00  0.00    -0.264 OA
ATOM     30  H   UNL     1       2.590  13.157   3.755  1.00  0.00    +0.236 HD
ENDBRANCH  26  29
ENDBRANCH  25  26
ENDBRANCH  24  25
ENDBRANCH   5  24
BRANCH   4  31
ATOM     31  O   UNL     1      -0.972  13.488   5.674  1.00  0.00    -0.387 OA
ATOM     32  H   UNL     1      -0.562  12.898   6.346  1.00  0.00    +0.211 HD
ENDBRANCH   4  31
TORSDOF 11
ENDMDL
MODEL 6
REMARK VINA RESULT:    -5.267     19.630     22.539
REMARK INTER + INTRA:          -9.526
REMARK INTER:                  -8.729
REMARK INTRA:                  -0.796
REMARK UNBOUND:                -1.795
REMARK SMILES O=S(=O)(O)OC[C@@H]1O[C@H](O[C@H]2[C@@H]3OC[C@H]2O[C@@H](O)[C@H]3O)[C@@H](O)[C@H](O)[C@@H]1O
REMARK SMILES IDX 9 1 21 2 23 3 25 4 7 5 8 6 10 7 11 8 14 9 15 10 13 11 16 12
REMARK SMILES IDX 12 13 17 14 19 15 18 16 20 18 22 20 24 22 6 24 5 25 2 26
REMARK SMILES IDX 1 27 3 28 4 29 26 31
REMARK H PARENT 18 17 20 19 22 21 24 23 4 30 26 32
ROOT
ATOM      1  C   UNL     1      14.909   1.871  17.395  1.00  0.00    +0.282 C 
ATOM      2  C   UNL     1      15.792   3.034  17.885  1.00  0.00    +0.202 C 
ATOM      3  C   UNL     1      16.049   3.962  16.710  1.00  0.00    +0.179 C 
ATOM      4  C   UNL     1      14.724   4.584  16.258  1.00  0.00    +0.177 C 
ATOM      5  C   UNL     1      13.532   3.603  16.358  1.00  0.00    +0.180 C 
ATOM      6  O   UNL     1      13.957   2.227  16.394  1.00  0.00    -0.341 OA
ENDROOT
BRANCH   1   7
ATOM      7  O   UNL     1      14.316   1.258  18.543  1.00  0.00    -0.341 OA
BRANCH   7   8
ATOM      8  C   UNL     1      13.338   0.279  18.207  1.00  0.00    +0.184 C 
ATOM      9  C   UNL     1      12.106  -1.667  18.645  1.00  0.00    +0.195 C 
ATOM     10  C   UNL     1      12.821  -0.534  19.384  1.00  0.00    +0.179 C 
ATOM     11  O   UNL     1      12.864  -1.885  17.427  1.00  0.00    -0.370 OA
ATOM     12  O   UNL     1      13.915  -0.988  20.200  1.00  0.00    -0.342 OA
ATOM     13  C   UNL     1      13.914  -0.884  17.408  1.00  0.00    +0.184 C 
ATOM     14  C   UNL     1      14.877  -1.819  19.560  1.00  0.00    +0.279 C 
ATOM     15  C   UNL     1      15.175  -1.426  18.095  1.00  0.00    +0.202 C 
BRANCH  14  16
ATOM     16  O   UNL     1      14.434  -3.171  19.631  1.00  0.00    -0.366 OA
ATOM     17  H   UNL     1      13.734  -3.234  18.957  1.00  0.00    +0.213 HD
ENDBRANCH  14  16
BRANCH  15  18
ATOM     18  O   UNL     1      15.699  -2.542  17.364  1.00  0.00    -0.385 OA
ATOM     19  H   UNL     1      15.711  -3.271  18.022  1.00  0.00    +0.211 HD
ENDBRANCH  15  18
ENDBRANCH   7   8
ENDBRANCH   1   7
BRANCH   2  20
ATOM     20  O   UNL     1      17.050   2.561  18.396  1.00  0.00    -0.385 OA
ATOM     21  H   UNL     1      17.244   1.733  17.913  1.00  0.00    +0.211 HD
ENDBRANCH   2  20
BRANCH   3  22
ATOM     22  O   UNL     1      16.959   5.009  17.087  1.00  0.00    -0.387 OA
ATOM     23  H   UNL     1      17.819   4.746  16.697  1.00  0.00    +0.211 HD
ENDBRANCH   3  22
BRANCH   5  24
ATOM     24  C   UNL     1      12.518   3.920  17.472  1.00  0.00    +0.220 C 
BRANCH  24  25
ATOM     25  O   UNL     1      11.574   4.862  16.970  1.00  0.00    -0.245 OA
BRANCH  25  26
ATOM     26  S   UNL     1      10.569   5.567  18.032  1.00  0.00    +0.397 S 
ATOM     27  O   UNL     1      10.684   7.005  17.941  1.00  0.00    -0.169 OA
ATOM     28  O   UNL     1      10.673   4.864  19.291  1.00  0.00    -0.169 OA
BRANCH  26  29
ATOM     29  O   UNL     1       9.126   5.154  17.451  1.00  0.00    -0.264 OA
ATOM     30  H   UNL     1       9.008   5.640  16.609  1.00  0.00    +0.236 HD
ENDBRANCH  26  29
ENDBRANCH  25  26
ENDBRANCH  24  25
ENDBRANCH   5  24
BRANCH   4  31
ATOM     31  O   UNL     1      14.485   5.778  17.012  1.00  0.00    -0.387 OA
ATOM     32  H   UNL     1      15.076   5.703  17.795  1.00  0.00    +0.211 HD
ENDBRANCH   4  31
TORSDOF 11
ENDMDL
MODEL 7
REMARK VINA RESULT:    -5.247     60.434     62.231
REMARK INTER + INTRA:          -9.495
REMARK INTER:                  -8.036
REMARK INTRA:                  -1.459
REMARK UNBOUND:                -1.795
REMARK SMILES O=S(=O)(O)OC[C@@H]1O[C@H](O[C@H]2[C@@H]3OC[C@H]2O[C@@H](O)[C@H]3O)[C@@H](O)[C@H](O)[C@@H]1O
REMARK SMILES IDX 9 1 21 2 23 3 25 4 7 5 8 6 10 7 11 8 14 9 15 10 13 11 16 12
REMARK SMILES IDX 12 13 17 14 19 15 18 16 20 18 22 20 24 22 6 24 5 25 2 26
REMARK SMILES IDX 1 27 3 28 4 29 26 31
REMARK H PARENT 18 17 20 19 22 21 24 23 4 30 26 32
ROOT
ATOM      1  C   UNL     1     -22.338 -19.860 -41.766  1.00  0.00    +0.282 C 
ATOM      2  C   UNL     1     -22.353 -18.332 -41.962  1.00  0.00    +0.202 C 
ATOM      3  C   UNL     1     -23.794 -17.894 -42.166  1.00  0.00    +0.179 C 
ATOM      4  C   UNL     1     -24.593 -18.175 -40.891  1.00  0.00    +0.177 C 
ATOM      5  C   UNL     1     -24.164 -19.484 -40.187  1.00  0.00    +0.180 C 
ATOM      6  O   UNL     1     -23.471 -20.382 -41.074  1.00  0.00    -0.341 OA
ENDROOT
BRANCH   1   7
ATOM      7  O   UNL     1     -21.094 -20.211 -41.154  1.00  0.00    -0.341 OA
BRANCH   7   8
ATOM      8  C   UNL     1     -20.565 -21.442 -41.635  1.00  0.00    +0.184 C 
ATOM      9  C   UNL     1     -18.838 -23.005 -41.890  1.00  0.00    +0.195 C 
ATOM     10  C   UNL     1     -19.305 -21.913 -40.926  1.00  0.00    +0.179 C 
ATOM     11  O   UNL     1     -19.234 -22.562 -43.213  1.00  0.00    -0.370 OA
ATOM     12  O   UNL     1     -18.367 -20.830 -40.795  1.00  0.00    -0.342 OA
ATOM     13  C   UNL     1     -19.967 -21.323 -43.033  1.00  0.00    +0.184 C 
ATOM     14  C   UNL     1     -17.919 -20.234 -42.008  1.00  0.00    +0.279 C 
ATOM     15  C   UNL     1     -19.008 -20.127 -43.098  1.00  0.00    +0.202 C 
BRANCH  14  16
ATOM     16  O   UNL     1     -16.800 -20.972 -42.494  1.00  0.00    -0.366 OA
ATOM     17  H   UNL     1     -16.051 -20.354 -42.424  1.00  0.00    +0.213 HD
ENDBRANCH  14  16
BRANCH  15  18
ATOM     18  O   UNL     1     -18.417 -20.033 -44.401  1.00  0.00    -0.385 OA
ATOM     19  H   UNL     1     -17.488 -20.315 -44.260  1.00  0.00    +0.211 HD
ENDBRANCH  15  18
ENDBRANCH   7   8
ENDBRANCH   1   7
BRANCH   2  20
ATOM     20  O   UNL     1     -21.575 -17.941 -43.106  1.00  0.00    -0.385 OA
ATOM     21  H   UNL     1     -20.821 -18.562 -43.145  1.00  0.00    +0.211 HD
ENDBRANCH   2  20
BRANCH   3  22
ATOM     22  O   UNL     1     -23.853 -16.488 -42.463  1.00  0.00    -0.387 OA
ATOM     23  H   UNL     1     -23.202 -16.077 -41.856  1.00  0.00    +0.211 HD
ENDBRANCH   3  22
BRANCH   5  24
ATOM     24  C   UNL     1     -23.408 -19.294 -38.859  1.00  0.00    +0.220 C 
BRANCH  24  25
ATOM     25  O   UNL     1     -23.554 -20.480 -38.081  1.00  0.00    -0.245 OA
BRANCH  25  26
ATOM     26  S   UNL     1     -22.221 -21.355 -37.778  1.00  0.00    +0.397 S 
ATOM     27  O   UNL     1     -22.103 -22.425 -38.743  1.00  0.00    -0.169 OA
ATOM     28  O   UNL     1     -22.147 -21.591 -36.354  1.00  0.00    -0.169 OA
BRANCH  26  29
ATOM     29  O   UNL     1     -21.049 -20.294 -38.080  1.00  0.00    -0.264 OA
ATOM     30  H   UNL     1     -21.484 -19.452 -38.326  1.00  0.00    +0.236 HD
ENDBRANCH  26  29
ENDBRANCH  25  26
ENDBRANCH  24  25
ENDBRANCH   5  24
BRANCH   4  31
ATOM     31  O   UNL     1     -24.486 -17.049 -40.012  1.00  0.00    -0.387 OA
ATOM     32  H   UNL     1     -23.932 -17.366 -39.264  1.00  0.00    +0.211 HD
ENDBRANCH   4  31
TORSDOF 11
ENDMDL
MODEL 8
REMARK VINA RESULT:    -5.043     19.899     22.300
REMARK INTER + INTRA:          -9.196
REMARK INTER:                  -8.170
REMARK INTRA:                  -1.026
REMARK UNBOUND:                -1.795
REMARK SMILES O=S(=O)(O)OC[C@@H]1O[C@H](O[C@H]2[C@@H]3OC[C@H]2O[C@@H](O)[C@H]3O)[C@@H](O)[C@H](O)[C@@H]1O
REMARK SMILES IDX 9 1 21 2 23 3 25 4 7 5 8 6 10 7 11 8 14 9 15 10 13 11 16 12
REMARK SMILES IDX 12 13 17 14 19 15 18 16 20 18 22 20 24 22 6 24 5 25 2 26
REMARK SMILES IDX 1 27 3 28 4 29 26 31
REMARK H PARENT 18 17 20 19 22 21 24 23 4 30 26 32
ROOT
ATOM      1  C   UNL     1      13.278   3.194  19.625  1.00  0.00    +0.282 C 
ATOM      2  C   UNL     1      12.176   4.236  19.348  1.00  0.00    +0.202 C 
ATOM      3  C   UNL     1      12.744   5.615  19.635  1.00  0.00    +0.179 C 
ATOM      4  C   UNL     1      13.877   5.911  18.648  1.00  0.00    +0.177 C 
ATOM      5  C   UNL     1      14.728   4.662  18.316  1.00  0.00    +0.180 C 
ATOM      6  O   UNL     1      14.600   3.630  19.313  1.00  0.00    -0.341 OA
ENDROOT
BRANCH   1   7
ATOM      7  O   UNL     1      12.912   1.983  18.959  1.00  0.00    -0.341 OA
BRANCH   7   8
ATOM      8  C   UNL     1      13.123   0.824  19.758  1.00  0.00    +0.184 C 
ATOM      9  C   UNL     1      14.362  -1.057  20.409  1.00  0.00    +0.195 C 
ATOM     10  C   UNL     1      14.561   0.330  19.796  1.00  0.00    +0.179 C 
ATOM     11  O   UNL     1      13.070  -1.518  19.935  1.00  0.00    -0.370 OA
ATOM     12  O   UNL     1      15.114   0.291  18.468  1.00  0.00    -0.342 OA
ATOM     13  C   UNL     1      12.504  -0.432  19.156  1.00  0.00    +0.184 C 
ATOM     14  C   UNL     1      14.448  -0.550  17.532  1.00  0.00    +0.279 C 
ATOM     15  C   UNL     1      12.911  -0.569  17.682  1.00  0.00    +0.202 C 
BRANCH  14  16
ATOM     16  O   UNL     1      14.974  -1.870  17.649  1.00  0.00    -0.366 OA
ATOM     17  H   UNL     1      14.195  -2.430  17.812  1.00  0.00    +0.213 HD
ENDBRANCH  14  16
BRANCH  15  18
ATOM     18  O   UNL     1      12.358  -1.767  17.123  1.00  0.00    -0.385 OA
ATOM     19  H   UNL     1      11.786  -2.121  17.838  1.00  0.00    +0.211 HD
ENDBRANCH  15  18
ENDBRANCH   7   8
ENDBRANCH   1   7
BRANCH   2  20
ATOM     20  O   UNL     1      11.025   4.016  20.181  1.00  0.00    -0.385 OA
ATOM     21  H   UNL     1      10.277   4.458  19.731  1.00  0.00    +0.211 HD
ENDBRANCH   2  20
BRANCH   3  22
ATOM     22  O   UNL     1      11.723   6.617  19.497  1.00  0.00    -0.387 OA
ATOM     23  H   UNL     1      10.907   6.115  19.286  1.00  0.00    +0.211 HD
ENDBRANCH   3  22
BRANCH   5  24
ATOM     24  C   UNL     1      14.546   4.108  16.891  1.00  0.00    +0.220 C 
BRANCH  24  25
ATOM     25  O   UNL     1      15.172   5.004  15.975  1.00  0.00    -0.245 OA
BRANCH  25  26
ATOM     26  S   UNL     1      16.572   4.540  15.298  1.00  0.00    +0.397 S 
ATOM     27  O   UNL     1      17.351   3.779  16.249  1.00  0.00    -0.169 OA
ATOM     28  O   UNL     1      17.123   5.665  14.577  1.00  0.00    -0.169 OA
BRANCH  26  29
ATOM     29  O   UNL     1      16.070   3.525  14.154  1.00  0.00    -0.264 OA
ATOM     30  H   UNL     1      15.104   3.654  14.062  1.00  0.00    +0.236 HD
ENDBRANCH  26  29
ENDBRANCH  25  26
ENDBRANCH  24  25
ENDBRANCH   5  24
BRANCH   4  31
ATOM     31  O   UNL     1      13.327   6.499  17.465  1.00  0.00    -0.387 OA
ATOM     32  H   UNL     1      13.574   5.882  16.739  1.00  0.00    +0.211 HD
ENDBRANCH   4  31
TORSDOF 11
ENDMDL
MODEL 9
REMARK VINA RESULT:    -4.926      3.456      7.103
REMARK INTER + INTRA:          -9.025
REMARK INTER:                  -7.690
REMARK INTRA:                  -1.335
REMARK UNBOUND:                -1.795
REMARK SMILES O=S(=O)(O)OC[C@@H]1O[C@H](O[C@H]2[C@@H]3OC[C@H]2O[C@@H](O)[C@H]3O)[C@@H](O)[C@H](O)[C@@H]1O
REMARK SMILES IDX 9 1 21 2 23 3 25 4 7 5 8 6 10 7 11 8 14 9 15 10 13 11 16 12
REMARK SMILES IDX 12 13 17 14 19 15 18 16 20 18 22 20 24 22 6 24 5 25 2 26
REMARK SMILES IDX 1 27 3 28 4 29 26 31
REMARK H PARENT 18 17 20 19 22 21 24 23 4 30 26 32
ROOT
ATOM      1  C   UNL     1      -1.202  12.300   2.546  1.00  0.00    +0.282 C 
ATOM      2  C   UNL     1      -1.830  13.124   3.687  1.00  0.00    +0.202 C 
ATOM      3  C   UNL     1      -1.332  12.563   5.007  1.00  0.00    +0.179 C 
ATOM      4  C   UNL     1       0.182  12.771   5.106  1.00  0.00    +0.177 C 
ATOM      5  C   UNL     1       0.904  12.596   3.749  1.00  0.00    +0.180 C 
ATOM      6  O   UNL     1       0.122  11.839   2.805  1.00  0.00    -0.341 OA
ENDROOT
BRANCH   1   7
ATOM      7  O   UNL     1      -1.305  13.068   1.344  1.00  0.00    -0.341 OA
BRANCH   7   8
ATOM      8  C   UNL     1      -1.791  12.310   0.240  1.00  0.00    +0.184 C 
ATOM      9  C   UNL     1      -2.312  12.040  -2.029  1.00  0.00    +0.195 C 
ATOM     10  C   UNL     1      -1.362  12.827  -1.124  1.00  0.00    +0.179 C 
ATOM     11  O   UNL     1      -3.536  11.874  -1.269  1.00  0.00    -0.370 OA
ATOM     12  O   UNL     1      -1.550  14.252  -1.204  1.00  0.00    -0.342 OA
ATOM     13  C   UNL     1      -3.294  12.456   0.038  1.00  0.00    +0.184 C 
ATOM     14  C   UNL     1      -2.881  14.723  -1.020  1.00  0.00    +0.279 C 
ATOM     15  C   UNL     1      -3.688  13.939   0.039  1.00  0.00    +0.202 C 
BRANCH  14  16
ATOM     16  O   UNL     1      -3.553  14.695  -2.277  1.00  0.00    -0.366 OA
ATOM     17  H   UNL     1      -4.406  14.265  -2.088  1.00  0.00    +0.213 HD
ENDBRANCH  14  16
BRANCH  15  18
ATOM     18  O   UNL     1      -5.096  14.081  -0.186  1.00  0.00    -0.385 OA
ATOM     19  H   UNL     1      -5.167  14.883  -0.747  1.00  0.00    +0.211 HD
ENDBRANCH  15  18
ENDBRANCH   7   8
ENDBRANCH   1   7
BRANCH   2  20
ATOM     20  O   UNL     1      -3.266  13.055   3.656  1.00  0.00    -0.385 OA
ATOM     21  H   UNL     1      -3.498  12.633   2.805  1.00  0.00    +0.211 HD
ENDBRANCH   2  20
BRANCH   3  22
ATOM     22  O   UNL     1      -1.974  13.227   6.109  1.00  0.00    -0.387 OA
ATOM     23  H   UNL     1      -2.155  12.516   6.759  1.00  0.00    +0.211 HD
ENDBRANCH   3  22
BRANCH   5  24
ATOM     24  C   UNL     1       1.451  13.895   3.129  1.00  0.00    +0.220 C 
BRANCH  24  25
ATOM     25  O   UNL     1       2.833  14.008   3.461  1.00  0.00    -0.245 OA
BRANCH  25  26
ATOM     26  S   UNL     1       3.268  15.175   4.502  1.00  0.00    +0.397 S 
ATOM     27  O   UNL     1       2.190  16.124   4.658  1.00  0.00    -0.169 OA
ATOM     28  O   UNL     1       4.617  15.586   4.185  1.00  0.00    -0.169 OA
BRANCH  26  29
ATOM     29  O   UNL     1       3.403  14.357   5.882  1.00  0.00    -0.264 OA
ATOM     30  H   UNL     1       3.922  14.916   6.495  1.00  0.00    +0.236 HD
ENDBRANCH  26  29
ENDBRANCH  25  26
ENDBRANCH  24  25
ENDBRANCH   5  24
BRANCH   4  31
ATOM     31  O   UNL     1       0.442  14.058   5.676  1.00  0.00    -0.387 OA
ATOM     32  H   UNL     1       1.030  13.879   6.444  1.00  0.00    +0.211 HD
ENDBRANCH   4  31
TORSDOF 11
ENDMDL
