MODEL 1
REMARK VINA RESULT:    -6.380      0.000      0.000
REMARK INTER + INTRA:         -15.285
REMARK INTER:                 -12.161
REMARK INTRA:                  -3.124
REMARK UNBOUND:                -3.124
REMARK SMILES C[C@H](NC(=O)CCC(=O)O)C(=O)N[C@@H](C)C(=O)N1CCC[C@@H]1C(=O)N[C@H](Cc1ccccc1)C(=O)Nc1ccc([N+](=O)[O-])cc1
REMARK SMILES IDX 14 1 15 2 13 3 11 4 12 5 2 7 1 8 3 9 4 10 5 11 6 13 7 14
REMARK SMILES IDX 8 15 9 16 10 17 16 19 17 20 18 21 19 22 22 23 20 24 21 25
REMARK SMILES IDX 23 26 24 27 25 28 26 30 27 31 28 32 29 33 33 34 30 35 32 36
REMARK SMILES IDX 31 37 34 38 35 39 36 40 37 42 38 43 45 44 39 45 44 46 40 47
REMARK SMILES IDX 41 48 42 49 43 50
REMARK H PARENT 13 6 3 12 10 18 25 29 36 41
ROOT
ATOM      1  C   UNL     1      11.986   3.348  21.159  1.00  0.00    +0.168 C 
ATOM      2  C   UNL     1      10.707   3.298  21.988  1.00  0.00    +0.041 C 
ENDROOT
BRANCH   1   3
ATOM      3  N   UNL     1      11.763   4.075  19.914  1.00  0.00    -0.343 N 
ATOM      4  C   UNL     1      12.049   5.413  19.760  1.00  0.00    +0.242 C 
ATOM      5  O   UNL     1      12.499   6.099  20.673  1.00  0.00    -0.273 OA
ATOM      6  H   UNL     1      11.551   3.523  19.085  1.00  0.00    +0.164 HD
BRANCH   4   7
ATOM      7  C   UNL     1      11.877   5.918  18.313  1.00  0.00    +0.168 C 
ATOM      8  C   UNL     1      10.426   6.270  18.017  1.00  0.00    +0.041 C 
BRANCH   7   9
ATOM      9  N   UNL     1      12.379   4.917  17.368  1.00  0.00    -0.345 N 
ATOM     10  C   UNL     1      13.716   4.832  17.052  1.00  0.00    +0.221 C 
ATOM     11  O   UNL     1      14.584   5.493  17.609  1.00  0.00    -0.275 OA
ATOM     12  H   UNL     1      11.703   4.485  16.749  1.00  0.00    +0.164 HD
BRANCH  10  13
ATOM     13  C   UNL     1      14.011   3.797  15.986  1.00  0.00    +0.111 C 
BRANCH  13  14
ATOM     14  C   UNL     1      14.800   2.620  16.545  1.00  0.00    +0.132 C 
BRANCH  14  15
ATOM     15  C   UNL     1      13.906   1.432  16.768  1.00  0.00    +0.303 C 
ATOM     16  O   UNL     1      14.100   0.288  16.396  1.00  0.00    -0.252 OA
BRANCH  15  17
ATOM     17  O   UNL     1      12.771   1.765  17.411  1.00  0.00    -0.481 OA
ATOM     18  H   UNL     1      12.959   2.651  17.785  1.00  0.00    +0.296 HD
ENDBRANCH  15  17
ENDBRANCH  14  15
ENDBRANCH  13  14
ENDBRANCH  10  13
ENDBRANCH   7   9
ENDBRANCH   4   7
ENDBRANCH   1   3
BRANCH   1  19
ATOM     19  C   UNL     1      12.434   1.922  20.780  1.00  0.00    +0.245 C 
ATOM     20  O   UNL     1      11.777   1.253  19.973  1.00  0.00    -0.272 OA
BRANCH  19  21
ATOM     21  N   UNL     1      13.554   1.407  21.390  1.00  0.00    -0.329 N 
ATOM     22  C   UNL     1      14.745   0.861  20.758  1.00  0.00    +0.120 C 
ATOM     23  C   UNL     1      13.608   1.269  22.841  1.00  0.00    +0.174 C 
ATOM     24  C   UNL     1      15.549   0.247  21.898  1.00  0.00    +0.024 C 
ATOM     25  C   UNL     1      15.092   1.034  23.123  1.00  0.00    +0.037 C 
BRANCH  23  26
ATOM     26  C   UNL     1      12.770   0.066  23.330  1.00  0.00    +0.243 C 
ATOM     27  O   UNL     1      12.763  -0.330  24.494  1.00  0.00    -0.273 OA
ATOM     28  N   UNL     1      11.975  -0.499  22.348  1.00  0.00    -0.342 N 
ATOM     29  H   UNL     1      11.755   0.091  21.552  1.00  0.00    +0.164 HD
BRANCH  28  30
ATOM     30  C   UNL     1      10.927  -1.455  22.717  1.00  0.00    +0.176 C 
BRANCH  30  31
ATOM     31  C   UNL     1      11.004  -2.706  21.828  1.00  0.00    +0.070 C 
BRANCH  31  32
ATOM     32  C   UNL     1      12.026  -2.588  20.721  1.00  0.00    -0.045 A 
ATOM     33  C   UNL     1      11.630  -2.247  19.420  1.00  0.00    +0.004 A 
ATOM     34  C   UNL     1      13.378  -2.856  20.974  1.00  0.00    +0.004 A 
ATOM     35  C   UNL     1      12.570  -2.187  18.390  1.00  0.00    +0.000 A 
ATOM     36  C   UNL     1      14.315  -2.794  19.942  1.00  0.00    +0.000 A 
ATOM     37  C   UNL     1      13.910  -2.463  18.651  1.00  0.00    +0.000 A 
ENDBRANCH  31  32
ENDBRANCH  30  31
BRANCH  30  38
ATOM     38  C   UNL     1       9.572  -0.731  22.526  1.00  0.00    +0.247 C 
ATOM     39  O   UNL     1       8.987  -0.774  21.443  1.00  0.00    -0.272 OA
ATOM     40  N   UNL     1       9.111  -0.117  23.678  1.00  0.00    -0.324 N 
ATOM     41  H   UNL     1       9.687  -0.220  24.507  1.00  0.00    +0.170 HD
BRANCH  40  42
ATOM     42  C   UNL     1       7.905   0.589  23.858  1.00  0.00    +0.041 A 
ATOM     43  C   UNL     1       7.522   1.693  23.092  1.00  0.00    +0.033 A 
ATOM     44  C   UNL     1       7.053   0.137  24.876  1.00  0.00    +0.033 A 
ATOM     45  C   UNL     1       6.305   2.341  23.332  1.00  0.00    +0.088 A 
ATOM     46  C   UNL     1       5.832   0.775  25.125  1.00  0.00    +0.088 A 
ATOM     47  C   UNL     1       5.463   1.878  24.349  1.00  0.00    +0.269 A 
BRANCH  47  48
ATOM     48  N   UNL     1       4.184   2.554  24.603  1.00  0.00    +0.062 N 
ATOM     49  O   UNL     1       4.217   3.653  25.174  1.00  0.00    -0.258 OA
ATOM     50  O   UNL     1       3.147   1.983  24.235  1.00  0.00    -0.258 OA
ENDBRANCH  47  48
ENDBRANCH  40  42
ENDBRANCH  30  38
ENDBRANCH  28  30
ENDBRANCH  23  26
ENDBRANCH  19  21
ENDBRANCH   1  19
TORSDOF 16
ENDMDL
MODEL 2
REMARK VINA RESULT:    -6.183     23.401     27.922
REMARK INTER + INTRA:         -14.910
REMARK INTER:                 -11.833
REMARK INTRA:                  -3.077
REMARK UNBOUND:                -3.124
REMARK SMILES C[C@H](NC(=O)CCC(=O)O)C(=O)N[C@@H](C)C(=O)N1CCC[C@@H]1C(=O)N[C@H](Cc1ccccc1)C(=O)Nc1ccc([N+](=O)[O-])cc1
REMARK SMILES IDX 14 1 15 2 13 3 11 4 12 5 2 7 1 8 3 9 4 10 5 11 6 13 7 14
REMARK SMILES IDX 8 15 9 16 10 17 16 19 17 20 18 21 19 22 22 23 20 24 21 25
REMARK SMILES IDX 23 26 24 27 25 28 26 30 27 31 28 32 29 33 33 34 30 35 32 36
REMARK SMILES IDX 31 37 34 38 35 39 36 40 37 42 38 43 45 44 39 45 44 46 40 47
REMARK SMILES IDX 41 48 42 49 43 50
REMARK H PARENT 13 6 3 12 10 18 25 29 36 41
ROOT
ATOM      1  C   UNL     1      -2.671  15.250  -0.395  1.00  0.00    +0.168 C 
ATOM      2  C   UNL     1      -3.149  16.504   0.329  1.00  0.00    +0.041 C 
ENDROOT
BRANCH   1   3
ATOM      3  N   UNL     1      -2.632  14.114   0.520  1.00  0.00    -0.343 N 
ATOM      4  C   UNL     1      -3.620  13.158   0.578  1.00  0.00    +0.242 C 
ATOM      5  O   UNL     1      -4.622  13.203  -0.130  1.00  0.00    -0.273 OA
ATOM      6  H   UNL     1      -1.754  13.938   1.005  1.00  0.00    +0.164 HD
BRANCH   4   7
ATOM      7  C   UNL     1      -3.281  11.974   1.507  1.00  0.00    +0.168 C 
ATOM      8  C   UNL     1      -4.543  11.281   2.004  1.00  0.00    +0.041 C 
BRANCH   7   9
ATOM      9  N   UNL     1      -2.457  12.435   2.627  1.00  0.00    -0.345 N 
ATOM     10  C   UNL     1      -1.289  11.795   2.973  1.00  0.00    +0.221 C 
ATOM     11  O   UNL     1      -0.800  10.883   2.316  1.00  0.00    -0.275 OA
ATOM     12  H   UNL     1      -2.898  13.046   3.306  1.00  0.00    +0.164 HD
BRANCH  10  13
ATOM     13  C   UNL     1      -0.641  12.369   4.216  1.00  0.00    +0.111 C 
BRANCH  13  14
ATOM     14  C   UNL     1       0.778  11.846   4.405  1.00  0.00    +0.132 C 
BRANCH  14  15
ATOM     15  C   UNL     1       1.401  12.423   5.646  1.00  0.00    +0.303 C 
ATOM     16  O   UNL     1       2.306  11.942   6.305  1.00  0.00    -0.252 OA
BRANCH  15  17
ATOM     17  O   UNL     1       0.804  13.569   6.028  1.00  0.00    -0.481 OA
ATOM     18  H   UNL     1       0.180  13.291   6.730  1.00  0.00    +0.296 HD
ENDBRANCH  15  17
ENDBRANCH  14  15
ENDBRANCH  13  14
ENDBRANCH  10  13
ENDBRANCH   7   9
ENDBRANCH   4   7
ENDBRANCH   1   3
BRANCH   1  19
ATOM     19  C   UNL     1      -1.239  15.454  -0.929  1.00  0.00    +0.245 C 
ATOM     20  O   UNL     1      -0.951  15.131  -2.087  1.00  0.00    -0.272 OA
BRANCH  19  21
ATOM     21  N   UNL     1      -0.291  15.966  -0.073  1.00  0.00    -0.329 N 
ATOM     22  C   UNL     1       0.423  17.229  -0.182  1.00  0.00    +0.120 C 
ATOM     23  C   UNL     1       0.184  15.180   1.060  1.00  0.00    +0.174 C 
ATOM     24  C   UNL     1       1.490  17.173   0.905  1.00  0.00    +0.024 C 
ATOM     25  C   UNL     1       0.905  16.207   1.932  1.00  0.00    +0.037 C 
BRANCH  23  26
ATOM     26  C   UNL     1       1.164  14.072   0.612  1.00  0.00    +0.243 C 
ATOM     27  O   UNL     1       1.565  13.178   1.355  1.00  0.00    -0.273 OA
ATOM     28  N   UNL     1       1.512  14.138  -0.726  1.00  0.00    -0.342 N 
ATOM     29  H   UNL     1       0.875  14.645  -1.331  1.00  0.00    +0.164 HD
BRANCH  28  30
ATOM     30  C   UNL     1       2.201  13.010  -1.358  1.00  0.00    +0.176 C 
BRANCH  30  31
ATOM     31  C   UNL     1       2.974  13.480  -2.599  1.00  0.00    +0.070 C 
BRANCH  31  32
ATOM     32  C   UNL     1       4.196  14.304  -2.264  1.00  0.00    -0.045 A 
ATOM     33  C   UNL     1       5.419  13.683  -1.983  1.00  0.00    +0.004 A 
ATOM     34  C   UNL     1       4.109  15.702  -2.194  1.00  0.00    +0.004 A 
ATOM     35  C   UNL     1       6.533  14.445  -1.627  1.00  0.00    +0.000 A 
ATOM     36  C   UNL     1       5.224  16.461  -1.838  1.00  0.00    +0.000 A 
ATOM     37  C   UNL     1       6.434  15.833  -1.552  1.00  0.00    +0.000 A 
ENDBRANCH  31  32
ENDBRANCH  30  31
BRANCH  30  38
ATOM     38  C   UNL     1       1.112  11.981  -1.748  1.00  0.00    +0.247 C 
ATOM     39  O   UNL     1       1.072  10.877  -1.203  1.00  0.00    -0.272 OA
ATOM     40  N   UNL     1       0.215  12.459  -2.688  1.00  0.00    -0.324 N 
ATOM     41  H   UNL     1       0.354  13.416  -3.000  1.00  0.00    +0.170 HD
BRANCH  40  42
ATOM     42  C   UNL     1      -0.906  11.800  -3.227  1.00  0.00    +0.041 A 
ATOM     43  C   UNL     1      -2.160  11.758  -2.612  1.00  0.00    +0.033 A 
ATOM     44  C   UNL     1      -0.728  11.150  -4.458  1.00  0.00    +0.033 A 
ATOM     45  C   UNL     1      -3.228  11.081  -3.214  1.00  0.00    +0.088 A 
ATOM     46  C   UNL     1      -1.788  10.471  -5.070  1.00  0.00    +0.088 A 
ATOM     47  C   UNL     1      -3.038  10.439  -4.443  1.00  0.00    +0.269 A 
BRANCH  47  48
ATOM     48  N   UNL     1      -4.155   9.730  -5.078  1.00  0.00    +0.062 N 
ATOM     49  O   UNL     1      -4.430   8.597  -4.659  1.00  0.00    -0.258 OA
ATOM     50  O   UNL     1      -4.755  10.306  -5.997  1.00  0.00    -0.258 OA
ENDBRANCH  47  48
ENDBRANCH  40  42
ENDBRANCH  30  38
ENDBRANCH  28  30
ENDBRANCH  23  26
ENDBRANCH  19  21
ENDBRANCH   1  19
TORSDOF 16
ENDMDL
MODEL 3
REMARK VINA RESULT:    -6.156     22.807     27.400
REMARK INTER + INTRA:         -14.859
REMARK INTER:                 -11.948
REMARK INTRA:                  -2.911
REMARK UNBOUND:                -3.124
REMARK SMILES C[C@H](NC(=O)CCC(=O)O)C(=O)N[C@@H](C)C(=O)N1CCC[C@@H]1C(=O)N[C@H](Cc1ccccc1)C(=O)Nc1ccc([N+](=O)[O-])cc1
REMARK SMILES IDX 14 1 15 2 13 3 11 4 12 5 2 7 1 8 3 9 4 10 5 11 6 13 7 14
REMARK SMILES IDX 8 15 9 16 10 17 16 19 17 20 18 21 19 22 22 23 20 24 21 25
REMARK SMILES IDX 23 26 24 27 25 28 26 30 27 31 28 32 29 33 33 34 30 35 32 36
REMARK SMILES IDX 31 37 34 38 35 39 36 40 37 42 38 43 45 44 39 45 44 46 40 47
REMARK SMILES IDX 41 48 42 49 43 50
REMARK H PARENT 13 6 3 12 10 18 25 29 36 41
ROOT
ATOM      1  C   UNL     1       2.643  15.602   3.894  1.00  0.00    +0.168 C 
ATOM      2  C   UNL     1       3.922  15.975   4.636  1.00  0.00    +0.041 C 
ENDROOT
BRANCH   1   3
ATOM      3  N   UNL     1       2.446  14.157   3.908  1.00  0.00    -0.343 N 
ATOM      4  C   UNL     1       1.591  13.519   4.779  1.00  0.00    +0.242 C 
ATOM      5  O   UNL     1       0.943  14.127   5.626  1.00  0.00    -0.273 OA
ATOM      6  H   UNL     1       2.827  13.628   3.125  1.00  0.00    +0.164 HD
BRANCH   4   7
ATOM      7  C   UNL     1       1.433  12.011   4.497  1.00  0.00    +0.168 C 
ATOM      8  C   UNL     1       2.778  11.298   4.524  1.00  0.00    +0.041 C 
BRANCH   7   9
ATOM      9  N   UNL     1       0.754  11.809   3.214  1.00  0.00    -0.345 N 
ATOM     10  C   UNL     1      -0.617  11.735   3.129  1.00  0.00    +0.221 C 
ATOM     11  O   UNL     1      -1.364  11.943   4.078  1.00  0.00    -0.275 OA
ATOM     12  H   UNL     1       1.311  11.447   2.448  1.00  0.00    +0.164 HD
BRANCH  10  13
ATOM     13  C   UNL     1      -1.110  11.426   1.730  1.00  0.00    +0.111 C 
BRANCH  13  14
ATOM     14  C   UNL     1      -2.220  12.377   1.300  1.00  0.00    +0.132 C 
BRANCH  14  15
ATOM     15  C   UNL     1      -3.559  11.695   1.346  1.00  0.00    +0.303 C 
ATOM     16  O   UNL     1      -3.969  10.941   2.210  1.00  0.00    -0.252 OA
BRANCH  15  17
ATOM     17  O   UNL     1      -4.301  11.961   0.254  1.00  0.00    -0.481 OA
ATOM     18  H   UNL     1      -3.795  12.656  -0.217  1.00  0.00    +0.296 HD
ENDBRANCH  15  17
ENDBRANCH  14  15
ENDBRANCH  13  14
ENDBRANCH  10  13
ENDBRANCH   7   9
ENDBRANCH   4   7
ENDBRANCH   1   3
BRANCH   1  19
ATOM     19  C   UNL     1       2.735  16.036   2.417  1.00  0.00    +0.245 C 
ATOM     20  O   UNL     1       3.799  16.466   1.956  1.00  0.00    -0.272 OA
BRANCH  19  21
ATOM     21  N   UNL     1       1.598  15.966   1.646  1.00  0.00    -0.329 N 
ATOM     22  C   UNL     1       0.213  15.970   2.091  1.00  0.00    +0.120 C 
ATOM     23  C   UNL     1       1.694  15.775   0.203  1.00  0.00    +0.174 C 
ATOM     24  C   UNL     1      -0.603  15.654   0.844  1.00  0.00    +0.024 C 
ATOM     25  C   UNL     1       0.293  16.123  -0.299  1.00  0.00    +0.037 C 
BRANCH  23  26
ATOM     26  C   UNL     1       2.045  14.312  -0.154  1.00  0.00    +0.243 C 
ATOM     27  O   UNL     1       1.568  13.337   0.425  1.00  0.00    -0.273 OA
ATOM     28  N   UNL     1       2.908  14.189  -1.229  1.00  0.00    -0.342 N 
ATOM     29  H   UNL     1       2.952  14.979  -1.863  1.00  0.00    +0.164 HD
BRANCH  28  30
ATOM     30  C   UNL     1       3.110  12.881  -1.857  1.00  0.00    +0.176 C 
BRANCH  30  31
ATOM     31  C   UNL     1       4.460  12.839  -2.589  1.00  0.00    +0.070 C 
BRANCH  31  32
ATOM     32  C   UNL     1       5.152  14.181  -2.640  1.00  0.00    -0.045 A 
ATOM     33  C   UNL     1       4.777  15.140  -3.590  1.00  0.00    +0.004 A 
ATOM     34  C   UNL     1       6.205  14.468  -1.760  1.00  0.00    +0.004 A 
ATOM     35  C   UNL     1       5.451  16.360  -3.665  1.00  0.00    +0.000 A 
ATOM     36  C   UNL     1       6.877  15.688  -1.837  1.00  0.00    +0.000 A 
ATOM     37  C   UNL     1       6.502  16.632  -2.791  1.00  0.00    +0.000 A 
ENDBRANCH  31  32
ENDBRANCH  30  31
BRANCH  30  38
ATOM     38  C   UNL     1       1.941  12.675  -2.852  1.00  0.00    +0.247 C 
ATOM     39  O   UNL     1       1.871  13.348  -3.880  1.00  0.00    -0.272 OA
ATOM     40  N   UNL     1       1.076  11.660  -2.480  1.00  0.00    -0.324 N 
ATOM     41  H   UNL     1       1.305  11.160  -1.627  1.00  0.00    +0.170 HD
BRANCH  40  42
ATOM     42  C   UNL     1      -0.057  11.194  -3.174  1.00  0.00    +0.041 A 
ATOM     43  C   UNL     1      -0.046  10.791  -4.512  1.00  0.00    +0.033 A 
ATOM     44  C   UNL     1      -1.261  11.140  -2.456  1.00  0.00    +0.033 A 
ATOM     45  C   UNL     1      -1.217  10.337  -5.131  1.00  0.00    +0.088 A 
ATOM     46  C   UNL     1      -2.438  10.687  -3.063  1.00  0.00    +0.088 A 
ATOM     47  C   UNL     1      -2.411  10.286  -4.403  1.00  0.00    +0.269 A 
BRANCH  47  48
ATOM     48  N   UNL     1      -3.640   9.809  -5.047  1.00  0.00    +0.062 N 
ATOM     49  O   UNL     1      -3.804  10.079  -6.246  1.00  0.00    -0.258 OA
ATOM     50  O   UNL     1      -4.443   9.167  -4.355  1.00  0.00    -0.258 OA
ENDBRANCH  47  48
ENDBRANCH  40  42
ENDBRANCH  30  38
ENDBRANCH  28  30
ENDBRANCH  23  26
ENDBRANCH  19  21
ENDBRANCH   1  19
TORSDOF 16
ENDMDL
MODEL 4
REMARK VINA RESULT:    -5.985     36.341     39.989
REMARK INTER + INTRA:         -14.532
REMARK INTER:                 -12.708
REMARK INTRA:                  -1.824
REMARK UNBOUND:                -3.124
REMARK SMILES C[C@H](NC(=O)CCC(=O)O)C(=O)N[C@@H](C)C(=O)N1CCC[C@@H]1C(=O)N[C@H](Cc1ccccc1)C(=O)Nc1ccc([N+](=O)[O-])cc1
REMARK SMILES IDX 14 1 15 2 13 3 11 4 12 5 2 7 1 8 3 9 4 10 5 11 6 13 7 14
REMARK SMILES IDX 8 15 9 16 10 17 16 19 17 20 18 21 19 22 22 23 20 24 21 25
REMARK SMILES IDX 23 26 24 27 25 28 26 30 27 31 28 32 29 33 33 34 30 35 32 36
REMARK SMILES IDX 31 37 34 38 35 39 36 40 37 42 38 43 45 44 39 45 44 46 40 47
REMARK SMILES IDX 41 48 42 49 43 50
REMARK H PARENT 13 6 3 12 10 18 25 29 36 41
ROOT
ATOM      1  C   UNL     1      -4.588  -2.701 -17.313  1.00  0.00    +0.168 C 
ATOM      2  C   UNL     1      -4.145  -1.525 -18.175  1.00  0.00    +0.041 C 
ENDROOT
BRANCH   1   3
ATOM      3  N   UNL     1      -5.839  -2.394 -16.629  1.00  0.00    -0.343 N 
ATOM      4  C   UNL     1      -6.892  -3.277 -16.548  1.00  0.00    +0.242 C 
ATOM      5  O   UNL     1      -6.858  -4.391 -17.064  1.00  0.00    -0.273 OA
ATOM      6  H   UNL     1      -5.858  -1.559 -16.047  1.00  0.00    +0.164 HD
BRANCH   4   7
ATOM      7  C   UNL     1      -8.041  -2.788 -15.643  1.00  0.00    +0.168 C 
ATOM      8  C   UNL     1      -7.840  -1.336 -15.229  1.00  0.00    +0.041 C 
BRANCH   7   9
ATOM      9  N   UNL     1      -8.163  -3.658 -14.470  1.00  0.00    -0.345 N 
ATOM     10  C   UNL     1      -9.164  -4.597 -14.372  1.00  0.00    +0.221 C 
ATOM     11  O   UNL     1      -9.941  -4.852 -15.284  1.00  0.00    -0.275 OA
ATOM     12  H   UNL     1      -7.681  -3.369 -13.627  1.00  0.00    +0.164 HD
BRANCH  10  13
ATOM     13  C   UNL     1      -9.170  -5.323 -13.042  1.00  0.00    +0.111 C 
BRANCH  13  14
ATOM     14  C   UNL     1      -9.300  -6.830 -13.223  1.00  0.00    +0.132 C 
BRANCH  14  15
ATOM     15  C   UNL     1      -8.074  -7.538 -12.716  1.00  0.00    +0.303 C 
ATOM     16  O   UNL     1      -6.970  -7.557 -13.234  1.00  0.00    -0.252 OA
BRANCH  15  17
ATOM     17  O   UNL     1      -8.320  -8.241 -11.594  1.00  0.00    -0.481 OA
ATOM     18  H   UNL     1      -7.431  -8.489 -11.266  1.00  0.00    +0.296 HD
ENDBRANCH  15  17
ENDBRANCH  14  15
ENDBRANCH  13  14
ENDBRANCH  10  13
ENDBRANCH   7   9
ENDBRANCH   4   7
ENDBRANCH   1   3
BRANCH   1  19
ATOM     19  C   UNL     1      -3.535  -2.994 -16.225  1.00  0.00    +0.245 C 
ATOM     20  O   UNL     1      -3.012  -2.068 -15.594  1.00  0.00    -0.272 OA
BRANCH  19  21
ATOM     21  N   UNL     1      -3.170  -4.302 -16.007  1.00  0.00    -0.329 N 
ATOM     22  C   UNL     1      -3.886  -5.316 -15.248  1.00  0.00    +0.120 C 
ATOM     23  C   UNL     1      -1.884  -4.800 -16.482  1.00  0.00    +0.174 C 
ATOM     24  C   UNL     1      -2.924  -6.495 -15.159  1.00  0.00    +0.024 C 
ATOM     25  C   UNL     1      -2.028  -6.318 -16.382  1.00  0.00    +0.037 C 
BRANCH  23  26
ATOM     26  C   UNL     1      -0.721  -4.311 -15.589  1.00  0.00    +0.243 C 
ATOM     27  O   UNL     1      -0.720  -4.401 -14.362  1.00  0.00    -0.273 OA
ATOM     28  N   UNL     1       0.357  -3.808 -16.297  1.00  0.00    -0.342 N 
ATOM     29  H   UNL     1       0.437  -4.104 -17.264  1.00  0.00    +0.164 HD
BRANCH  28  30
ATOM     30  C   UNL     1       1.631  -3.567 -15.616  1.00  0.00    +0.176 C 
BRANCH  30  31
ATOM     31  C   UNL     1       2.089  -2.117 -15.828  1.00  0.00    +0.070 C 
BRANCH  31  32
ATOM     32  C   UNL     1       2.925  -1.583 -14.688  1.00  0.00    -0.045 A 
ATOM     33  C   UNL     1       3.161  -0.207 -14.561  1.00  0.00    +0.004 A 
ATOM     34  C   UNL     1       3.506  -2.462 -13.764  1.00  0.00    +0.004 A 
ATOM     35  C   UNL     1       3.973   0.278 -13.535  1.00  0.00    +0.000 A 
ATOM     36  C   UNL     1       4.317  -1.974 -12.739  1.00  0.00    +0.000 A 
ATOM     37  C   UNL     1       4.552  -0.606 -12.626  1.00  0.00    +0.000 A 
ENDBRANCH  31  32
ENDBRANCH  30  31
BRANCH  30  38
ATOM     38  C   UNL     1       2.656  -4.559 -16.219  1.00  0.00    +0.247 C 
ATOM     39  O   UNL     1       3.096  -4.388 -17.356  1.00  0.00    -0.272 OA
ATOM     40  N   UNL     1       3.028  -5.565 -15.343  1.00  0.00    -0.324 N 
ATOM     41  H   UNL     1       2.612  -5.535 -14.417  1.00  0.00    +0.170 HD
BRANCH  40  42
ATOM     42  C   UNL     1       3.959  -6.599 -15.560  1.00  0.00    +0.041 A 
ATOM     43  C   UNL     1       5.345  -6.436 -15.471  1.00  0.00    +0.033 A 
ATOM     44  C   UNL     1       3.441  -7.861 -15.883  1.00  0.00    +0.033 A 
ATOM     45  C   UNL     1       6.207  -7.515 -15.700  1.00  0.00    +0.088 A 
ATOM     46  C   UNL     1       4.292  -8.949 -16.113  1.00  0.00    +0.088 A 
ATOM     47  C   UNL     1       5.676  -8.770 -16.020  1.00  0.00    +0.269 A 
BRANCH  47  48
ATOM     48  N   UNL     1       6.576  -9.905 -16.258  1.00  0.00    +0.062 N 
ATOM     49  O   UNL     1       6.119 -10.884 -16.865  1.00  0.00    -0.258 OA
ATOM     50  O   UNL     1       7.738  -9.818 -15.835  1.00  0.00    -0.258 OA
ENDBRANCH  47  48
ENDBRANCH  40  42
ENDBRANCH  30  38
ENDBRANCH  28  30
ENDBRANCH  23  26
ENDBRANCH  19  21
ENDBRANCH   1  19
TORSDOF 16
ENDMDL
MODEL 5
REMARK VINA RESULT:    -5.958     23.779     27.933
REMARK INTER + INTRA:         -14.481
REMARK INTER:                 -12.104
REMARK INTRA:                  -2.377
REMARK UNBOUND:                -3.124
REMARK SMILES C[C@H](NC(=O)CCC(=O)O)C(=O)N[C@@H](C)C(=O)N1CCC[C@@H]1C(=O)N[C@H](Cc1ccccc1)C(=O)Nc1ccc([N+](=O)[O-])cc1
REMARK SMILES IDX 14 1 15 2 13 3 11 4 12 5 2 7 1 8 3 9 4 10 5 11 6 13 7 14
REMARK SMILES IDX 8 15 9 16 10 17 16 19 17 20 18 21 19 22 22 23 20 24 21 25
REMARK SMILES IDX 23 26 24 27 25 28 26 30 27 31 28 32 29 33 33 34 30 35 32 36
REMARK SMILES IDX 31 37 34 38 35 39 36 40 37 42 38 43 45 44 39 45 44 46 40 47
REMARK SMILES IDX 41 48 42 49 43 50
REMARK H PARENT 13 6 3 12 10 18 25 29 36 41
ROOT
ATOM      1  C   UNL     1       5.343  12.627  -3.463  1.00  0.00    +0.168 C 
ATOM      2  C   UNL     1       5.617  12.178  -2.032  1.00  0.00    +0.041 C 
ENDROOT
BRANCH   1   3
ATOM      3  N   UNL     1       6.549  13.182  -4.067  1.00  0.00    -0.343 N 
ATOM      4  C   UNL     1       6.903  12.969  -5.380  1.00  0.00    +0.242 C 
ATOM      5  O   UNL     1       6.231  12.276  -6.138  1.00  0.00    -0.273 OA
ATOM      6  H   UNL     1       7.050  13.893  -3.536  1.00  0.00    +0.164 HD
BRANCH   4   7
ATOM      7  C   UNL     1       8.132  13.785  -5.829  1.00  0.00    +0.168 C 
ATOM      8  C   UNL     1       9.160  12.902  -6.523  1.00  0.00    +0.041 C 
BRANCH   7   9
ATOM      9  N   UNL     1       8.722  14.478  -4.681  1.00  0.00    -0.345 N 
ATOM     10  C   UNL     1       8.655  15.847  -4.554  1.00  0.00    +0.221 C 
ATOM     11  O   UNL     1       8.014  16.564  -5.313  1.00  0.00    -0.275 OA
ATOM     12  H   UNL     1       9.412  13.971  -4.139  1.00  0.00    +0.164 HD
BRANCH  10  13
ATOM     13  C   UNL     1       9.409  16.371  -3.349  1.00  0.00    +0.111 C 
BRANCH  13  14
ATOM     14  C   UNL     1       8.521  17.230  -2.458  1.00  0.00    +0.132 C 
BRANCH  14  15
ATOM     15  C   UNL     1       7.260  16.497  -2.093  1.00  0.00    +0.303 C 
ATOM     16  O   UNL     1       7.162  15.516  -1.376  1.00  0.00    -0.252 OA
BRANCH  15  17
ATOM     17  O   UNL     1       6.177  17.015  -2.704  1.00  0.00    -0.481 OA
ATOM     18  H   UNL     1       5.560  17.215  -1.969  1.00  0.00    +0.296 HD
ENDBRANCH  15  17
ENDBRANCH  14  15
ENDBRANCH  13  14
ENDBRANCH  10  13
ENDBRANCH   7   9
ENDBRANCH   4   7
ENDBRANCH   1   3
BRANCH   1  19
ATOM     19  C   UNL     1       4.273  13.737  -3.480  1.00  0.00    +0.245 C 
ATOM     20  O   UNL     1       4.311  14.657  -2.654  1.00  0.00    -0.272 OA
BRANCH  19  21
ATOM     21  N   UNL     1       3.263  13.653  -4.410  1.00  0.00    -0.329 N 
ATOM     22  C   UNL     1       2.704  14.723  -5.223  1.00  0.00    +0.120 C 
ATOM     23  C   UNL     1       2.544  12.400  -4.610  1.00  0.00    +0.174 C 
ATOM     24  C   UNL     1       1.484  14.109  -5.899  1.00  0.00    +0.024 C 
ATOM     25  C   UNL     1       1.806  12.617  -5.931  1.00  0.00    +0.037 C 
BRANCH  23  26
ATOM     26  C   UNL     1       1.537  12.134  -3.469  1.00  0.00    +0.243 C 
ATOM     27  O   UNL     1       1.008  13.025  -2.806  1.00  0.00    -0.273 OA
ATOM     28  N   UNL     1       1.233  10.795  -3.290  1.00  0.00    -0.342 N 
ATOM     29  H   UNL     1       1.403  10.186  -4.082  1.00  0.00    +0.164 HD
BRANCH  28  30
ATOM     30  C   UNL     1       0.098  10.410  -2.446  1.00  0.00    +0.176 C 
BRANCH  30  31
ATOM     31  C   UNL     1      -1.128  11.279  -2.764  1.00  0.00    +0.070 C 
BRANCH  31  32
ATOM     32  C   UNL     1      -1.980  10.721  -3.881  1.00  0.00    -0.045 A 
ATOM     33  C   UNL     1      -1.722  11.066  -5.214  1.00  0.00    +0.004 A 
ATOM     34  C   UNL     1      -3.064   9.880  -3.591  1.00  0.00    +0.004 A 
ATOM     35  C   UNL     1      -2.540  10.587  -6.238  1.00  0.00    +0.000 A 
ATOM     36  C   UNL     1      -3.880   9.403  -4.617  1.00  0.00    +0.000 A 
ATOM     37  C   UNL     1      -3.620   9.758  -5.939  1.00  0.00    +0.000 A 
ENDBRANCH  31  32
ENDBRANCH  30  31
BRANCH  30  38
ATOM     38  C   UNL     1       0.545  10.611  -0.976  1.00  0.00    +0.247 C 
ATOM     39  O   UNL     1       1.565  10.065  -0.554  1.00  0.00    -0.272 OA
ATOM     40  N   UNL     1      -0.272  11.473  -0.267  1.00  0.00    -0.324 N 
ATOM     41  H   UNL     1      -1.047  11.886  -0.778  1.00  0.00    +0.170 HD
BRANCH  40  42
ATOM     42  C   UNL     1      -0.129  11.897   1.069  1.00  0.00    +0.041 A 
ATOM     43  C   UNL     1       0.832  12.816   1.500  1.00  0.00    +0.033 A 
ATOM     44  C   UNL     1      -1.017  11.349   2.006  1.00  0.00    +0.033 A 
ATOM     45  C   UNL     1       0.910  13.188   2.847  1.00  0.00    +0.088 A 
ATOM     46  C   UNL     1      -0.951  11.714   3.355  1.00  0.00    +0.088 A 
ATOM     47  C   UNL     1       0.016  12.635   3.771  1.00  0.00    +0.269 A 
BRANCH  47  48
ATOM     48  N   UNL     1       0.093  13.025   5.185  1.00  0.00    +0.062 N 
ATOM     49  O   UNL     1      -0.950  13.411   5.732  1.00  0.00    -0.258 OA
ATOM     50  O   UNL     1       1.195  12.947   5.746  1.00  0.00    -0.258 OA
ENDBRANCH  47  48
ENDBRANCH  40  42
ENDBRANCH  30  38
ENDBRANCH  28  30
ENDBRANCH  23  26
ENDBRANCH  19  21
ENDBRANCH   1  19
TORSDOF 16
ENDMDL
MODEL 6
REMARK VINA RESULT:    -5.902     21.271     24.877
REMARK INTER + INTRA:         -14.375
REMARK INTER:                 -12.003
REMARK INTRA:                  -2.372
REMARK UNBOUND:                -3.124
REMARK SMILES C[C@H](NC(=O)CCC(=O)O)C(=O)N[C@@H](C)C(=O)N1CCC[C@@H]1C(=O)N[C@H](Cc1ccccc1)C(=O)Nc1ccc([N+](=O)[O-])cc1
REMARK SMILES IDX 14 1 15 2 13 3 11 4 12 5 2 7 1 8 3 9 4 10 5 11 6 13 7 14
REMARK SMILES IDX 8 15 9 16 10 17 16 19 17 20 18 21 19 22 22 23 20 24 21 25
REMARK SMILES IDX 23 26 24 27 25 28 26 30 27 31 28 32 29 33 33 34 30 35 32 36
REMARK SMILES IDX 31 37 34 38 35 39 36 40 37 42 38 43 45 44 39 45 44 46 40 47
REMARK SMILES IDX 41 48 42 49 43 50
REMARK H PARENT 13 6 3 12 10 18 25 29 36 41
ROOT
ATOM      1  C   UNL     1       2.890  16.264   4.606  1.00  0.00    +0.168 C 
ATOM      2  C   UNL     1       4.273  16.252   3.963  1.00  0.00    +0.041 C 
ENDROOT
BRANCH   1   3
ATOM      3  N   UNL     1       2.683  17.500   5.352  1.00  0.00    -0.343 N 
ATOM      4  C   UNL     1       1.592  18.320   5.169  1.00  0.00    +0.242 C 
ATOM      5  O   UNL     1       0.717  18.075   4.343  1.00  0.00    -0.273 OA
ATOM      6  H   UNL     1       3.285  17.663   6.158  1.00  0.00    +0.164 HD
BRANCH   4   7
ATOM      7  C   UNL     1       1.514  19.481   6.181  1.00  0.00    +0.168 C 
ATOM      8  C   UNL     1       1.004  20.756   5.524  1.00  0.00    +0.041 C 
BRANCH   7   9
ATOM      9  N   UNL     1       2.824  19.695   6.802  1.00  0.00    -0.345 N 
ATOM     10  C   UNL     1       3.197  19.025   7.944  1.00  0.00    +0.221 C 
ATOM     11  O   UNL     1       2.527  18.135   8.453  1.00  0.00    -0.275 OA
ATOM     12  H   UNL     1       3.326  20.537   6.544  1.00  0.00    +0.164 HD
BRANCH  10  13
ATOM     13  C   UNL     1       4.547  19.462   8.476  1.00  0.00    +0.111 C 
BRANCH  13  14
ATOM     14  C   UNL     1       5.667  18.551   7.988  1.00  0.00    +0.132 C 
BRANCH  14  15
ATOM     15  C   UNL     1       5.905  17.428   8.958  1.00  0.00    +0.303 C 
ATOM     16  O   UNL     1       5.695  17.437  10.159  1.00  0.00    -0.252 OA
BRANCH  15  17
ATOM     17  O   UNL     1       6.453  16.351   8.363  1.00  0.00    -0.481 OA
ATOM     18  H   UNL     1       6.433  16.569   7.408  1.00  0.00    +0.296 HD
ENDBRANCH  15  17
ENDBRANCH  14  15
ENDBRANCH  13  14
ENDBRANCH  10  13
ENDBRANCH   7   9
ENDBRANCH   4   7
ENDBRANCH   1   3
BRANCH   1  19
ATOM     19  C   UNL     1       2.754  15.099   5.606  1.00  0.00    +0.245 C 
ATOM     20  O   UNL     1       3.042  15.260   6.798  1.00  0.00    -0.272 OA
BRANCH  19  21
ATOM     21  N   UNL     1       2.343  13.876   5.130  1.00  0.00    -0.329 N 
ATOM     22  C   UNL     1       2.865  13.140   3.988  1.00  0.00    +0.120 C 
ATOM     23  C   UNL     1       1.195  13.199   5.722  1.00  0.00    +0.174 C 
ATOM     24  C   UNL     1       1.902  11.974   3.798  1.00  0.00    +0.024 C 
ATOM     25  C   UNL     1       1.306  11.771   5.188  1.00  0.00    +0.037 C 
BRANCH  23  26
ATOM     26  C   UNL     1      -0.137  13.840   5.270  1.00  0.00    +0.243 C 
ATOM     27  O   UNL     1      -0.204  14.843   4.562  1.00  0.00    -0.273 OA
ATOM     28  N   UNL     1      -1.262  13.149   5.687  1.00  0.00    -0.342 N 
ATOM     29  H   UNL     1      -1.126  12.173   5.927  1.00  0.00    +0.164 HD
BRANCH  28  30
ATOM     30  C   UNL     1      -2.571  13.468   5.111  1.00  0.00    +0.176 C 
BRANCH  30  31
ATOM     31  C   UNL     1      -3.694  13.098   6.092  1.00  0.00    +0.070 C 
BRANCH  31  32
ATOM     32  C   UNL     1      -3.680  13.928   7.354  1.00  0.00    -0.045 A 
ATOM     33  C   UNL     1      -3.708  13.312   8.612  1.00  0.00    +0.004 A 
ATOM     34  C   UNL     1      -3.678  15.328   7.281  1.00  0.00    +0.004 A 
ATOM     35  C   UNL     1      -3.744  14.082   9.776  1.00  0.00    +0.000 A 
ATOM     36  C   UNL     1      -3.714  16.096   8.445  1.00  0.00    +0.000 A 
ATOM     37  C   UNL     1      -3.749  15.473   9.691  1.00  0.00    +0.000 A 
ENDBRANCH  31  32
ENDBRANCH  30  31
BRANCH  30  38
ATOM     38  C   UNL     1      -2.696  12.652   3.801  1.00  0.00    +0.247 C 
ATOM     39  O   UNL     1      -3.043  11.471   3.833  1.00  0.00    -0.272 OA
ATOM     40  N   UNL     1      -2.438  13.396   2.663  1.00  0.00    -0.324 N 
ATOM     41  H   UNL     1      -2.217  14.377   2.805  1.00  0.00    +0.170 HD
BRANCH  40  42
ATOM     42  C   UNL     1      -2.499  12.973   1.322  1.00  0.00    +0.041 A 
ATOM     43  C   UNL     1      -1.406  12.479   0.605  1.00  0.00    +0.033 A 
ATOM     44  C   UNL     1      -3.747  13.063   0.686  1.00  0.00    +0.033 A 
ATOM     45  C   UNL     1      -1.550  12.077  -0.729  1.00  0.00    +0.088 A 
ATOM     46  C   UNL     1      -3.904  12.663  -0.646  1.00  0.00    +0.088 A 
ATOM     47  C   UNL     1      -2.800  12.170  -1.350  1.00  0.00    +0.269 A 
BRANCH  47  48
ATOM     48  N   UNL     1      -2.955  11.747  -2.747  1.00  0.00    +0.062 N 
ATOM     49  O   UNL     1      -2.949  12.628  -3.619  1.00  0.00    -0.258 OA
ATOM     50  O   UNL     1      -3.086  10.535  -2.972  1.00  0.00    -0.258 OA
ENDBRANCH  47  48
ENDBRANCH  40  42
ENDBRANCH  30  38
ENDBRANCH  28  30
ENDBRANCH  23  26
ENDBRANCH  19  21
ENDBRANCH   1  19
TORSDOF 16
ENDMDL
MODEL 7
REMARK VINA RESULT:    -5.742     23.225     27.478
REMARK INTER + INTRA:         -14.069
REMARK INTER:                 -12.195
REMARK INTRA:                  -1.874
REMARK UNBOUND:                -3.124
REMARK SMILES C[C@H](NC(=O)CCC(=O)O)C(=O)N[C@@H](C)C(=O)N1CCC[C@@H]1C(=O)N[C@H](Cc1ccccc1)C(=O)Nc1ccc([N+](=O)[O-])cc1
REMARK SMILES IDX 14 1 15 2 13 3 11 4 12 5 2 7 1 8 3 9 4 10 5 11 6 13 7 14
REMARK SMILES IDX 8 15 9 16 10 17 16 19 17 20 18 21 19 22 22 23 20 24 21 25
REMARK SMILES IDX 23 26 24 27 25 28 26 30 27 31 28 32 29 33 33 34 30 35 32 36
REMARK SMILES IDX 31 37 34 38 35 39 36 40 37 42 38 43 45 44 39 45 44 46 40 47
REMARK SMILES IDX 41 48 42 49 43 50
REMARK H PARENT 13 6 3 12 10 18 25 29 36 41
ROOT
ATOM      1  C   UNL     1       0.217  15.049  -3.176  1.00  0.00    +0.168 C 
ATOM      2  C   UNL     1       0.009  16.543  -2.955  1.00  0.00    +0.041 C 
ENDROOT
BRANCH   1   3
ATOM      3  N   UNL     1      -0.382  14.628  -4.438  1.00  0.00    -0.343 N 
ATOM      4  C   UNL     1       0.190  13.694  -5.272  1.00  0.00    +0.242 C 
ATOM      5  O   UNL     1       1.264  13.156  -5.018  1.00  0.00    -0.273 OA
ATOM      6  H   UNL     1      -1.344  14.915  -4.614  1.00  0.00    +0.164 HD
BRANCH   4   7
ATOM      7  C   UNL     1      -0.706  13.299  -6.464  1.00  0.00    +0.168 C 
ATOM      8  C   UNL     1      -1.489  14.495  -6.988  1.00  0.00    +0.041 C 
BRANCH   7   9
ATOM      9  N   UNL     1      -1.605  12.208  -6.077  1.00  0.00    -0.345 N 
ATOM     10  C   UNL     1      -1.969  11.226  -6.969  1.00  0.00    +0.221 C 
ATOM     11  O   UNL     1      -1.491  11.124  -8.093  1.00  0.00    -0.275 OA
ATOM     12  H   UNL     1      -2.166  12.344  -5.245  1.00  0.00    +0.164 HD
BRANCH  10  13
ATOM     13  C   UNL     1      -2.978  10.250  -6.400  1.00  0.00    +0.111 C 
BRANCH  13  14
ATOM     14  C   UNL     1      -4.239  10.958  -5.919  1.00  0.00    +0.132 C 
BRANCH  14  15
ATOM     15  C   UNL     1      -4.306  10.972  -4.417  1.00  0.00    +0.303 C 
ATOM     16  O   UNL     1      -3.923  11.858  -3.673  1.00  0.00    -0.252 OA
BRANCH  15  17
ATOM     17  O   UNL     1      -4.812   9.827  -3.921  1.00  0.00    -0.481 OA
ATOM     18  H   UNL     1      -5.202   9.380  -4.702  1.00  0.00    +0.296 HD
ENDBRANCH  15  17
ENDBRANCH  14  15
ENDBRANCH  13  14
ENDBRANCH  10  13
ENDBRANCH   7   9
ENDBRANCH   4   7
ENDBRANCH   1   3
BRANCH   1  19
ATOM     19  C   UNL     1      -0.467  14.242  -2.055  1.00  0.00    +0.245 C 
ATOM     20  O   UNL     1      -1.349  14.759  -1.359  1.00  0.00    -0.272 OA
BRANCH  19  21
ATOM     21  N   UNL     1      -0.043  12.953  -1.829  1.00  0.00    -0.329 N 
ATOM     22  C   UNL     1      -0.711  11.713  -2.197  1.00  0.00    +0.120 C 
ATOM     23  C   UNL     1       1.168  12.697  -1.057  1.00  0.00    +0.174 C 
ATOM     24  C   UNL     1       0.092  10.614  -1.512  1.00  0.00    +0.024 C 
ATOM     25  C   UNL     1       1.480  11.231  -1.354  1.00  0.00    +0.037 C 
BRANCH  23  26
ATOM     26  C   UNL     1       0.931  12.901   0.456  1.00  0.00    +0.243 C 
ATOM     27  O   UNL     1       0.935  14.002   1.004  1.00  0.00    -0.273 OA
ATOM     28  N   UNL     1       0.653  11.732   1.143  1.00  0.00    -0.342 N 
ATOM     29  H   UNL     1       0.306  10.956   0.589  1.00  0.00    +0.164 HD
BRANCH  28  30
ATOM     30  C   UNL     1       0.136  11.794   2.513  1.00  0.00    +0.176 C 
BRANCH  30  31
ATOM     31  C   UNL     1      -0.938  12.885   2.633  1.00  0.00    +0.070 C 
BRANCH  31  32
ATOM     32  C   UNL     1      -2.297  12.439   2.144  1.00  0.00    -0.045 A 
ATOM     33  C   UNL     1      -3.105  11.615   2.939  1.00  0.00    +0.004 A 
ATOM     34  C   UNL     1      -2.750  12.816   0.872  1.00  0.00    +0.004 A 
ATOM     35  C   UNL     1      -4.339  11.166   2.464  1.00  0.00    +0.000 A 
ATOM     36  C   UNL     1      -3.984  12.366   0.400  1.00  0.00    +0.000 A 
ATOM     37  C   UNL     1      -4.776  11.540   1.195  1.00  0.00    +0.000 A 
ENDBRANCH  31  32
ENDBRANCH  30  31
BRANCH  30  38
ATOM     38  C   UNL     1       1.341  12.108   3.433  1.00  0.00    +0.247 C 
ATOM     39  O   UNL     1       2.275  11.312   3.534  1.00  0.00    -0.272 OA
ATOM     40  N   UNL     1       1.259  13.349   4.041  1.00  0.00    -0.324 N 
ATOM     41  H   UNL     1       0.446  13.912   3.811  1.00  0.00    +0.170 HD
BRANCH  40  42
ATOM     42  C   UNL     1       2.196  13.954   4.901  1.00  0.00    +0.041 A 
ATOM     43  C   UNL     1       3.120  14.921   4.496  1.00  0.00    +0.033 A 
ATOM     44  C   UNL     1       2.182  13.544   6.242  1.00  0.00    +0.033 A 
ATOM     45  C   UNL     1       4.020  15.477   5.414  1.00  0.00    +0.088 A 
ATOM     46  C   UNL     1       3.076  14.092   7.169  1.00  0.00    +0.088 A 
ATOM     47  C   UNL     1       3.994  15.060   6.749  1.00  0.00    +0.269 A 
BRANCH  47  48
ATOM     48  N   UNL     1       4.934  15.642   7.715  1.00  0.00    +0.062 N 
ATOM     49  O   UNL     1       6.146  15.511   7.489  1.00  0.00    -0.258 OA
ATOM     50  O   UNL     1       4.461  16.227   8.700  1.00  0.00    -0.258 OA
ENDBRANCH  47  48
ENDBRANCH  40  42
ENDBRANCH  30  38
ENDBRANCH  28  30
ENDBRANCH  23  26
ENDBRANCH  19  21
ENDBRANCH   1  19
TORSDOF 16
ENDMDL
MODEL 8
REMARK VINA RESULT:    -5.611     29.571     34.013
REMARK INTER + INTRA:         -13.820
REMARK INTER:                  -9.620
REMARK INTRA:                  -4.200
REMARK UNBOUND:                -3.124
REMARK SMILES C[C@H](NC(=O)CCC(=O)O)C(=O)N[C@@H](C)C(=O)N1CCC[C@@H]1C(=O)N[C@H](Cc1ccccc1)C(=O)Nc1ccc([N+](=O)[O-])cc1
REMARK SMILES IDX 14 1 15 2 13 3 11 4 12 5 2 7 1 8 3 9 4 10 5 11 6 13 7 14
REMARK SMILES IDX 8 15 9 16 10 17 16 19 17 20 18 21 19 22 22 23 20 24 21 25
REMARK SMILES IDX 23 26 24 27 25 28 26 30 27 31 28 32 29 33 33 34 30 35 32 36
REMARK SMILES IDX 31 37 34 38 35 39 36 40 37 42 38 43 45 44 39 45 44 46 40 47
REMARK SMILES IDX 41 48 42 49 43 50
REMARK H PARENT 13 6 3 12 10 18 25 29 36 41
ROOT
ATOM      1  C   UNL     1     -23.424   7.126   7.942  1.00  0.00    +0.168 C 
ATOM      2  C   UNL     1     -24.597   6.761   7.039  1.00  0.00    +0.041 C 
ENDROOT
BRANCH   1   3
ATOM      3  N   UNL     1     -22.471   6.023   8.016  1.00  0.00    -0.343 N 
ATOM      4  C   UNL     1     -21.107   6.205   8.054  1.00  0.00    +0.242 C 
ATOM      5  O   UNL     1     -20.590   7.318   8.010  1.00  0.00    -0.273 OA
ATOM      6  H   UNL     1     -22.846   5.099   8.222  1.00  0.00    +0.164 HD
BRANCH   4   7
ATOM      7  C   UNL     1     -20.316   4.902   8.291  1.00  0.00    +0.168 C 
ATOM      8  C   UNL     1     -20.231   4.067   7.020  1.00  0.00    +0.041 C 
BRANCH   7   9
ATOM      9  N   UNL     1     -20.923   4.138   9.384  1.00  0.00    -0.345 N 
ATOM     10  C   UNL     1     -20.154   3.509  10.336  1.00  0.00    +0.221 C 
ATOM     11  O   UNL     1     -18.937   3.631  10.409  1.00  0.00    -0.275 OA
ATOM     12  H   UNL     1     -21.888   3.849   9.267  1.00  0.00    +0.164 HD
BRANCH  10  13
ATOM     13  C   UNL     1     -20.971   2.695  11.319  1.00  0.00    +0.111 C 
BRANCH  13  14
ATOM     14  C   UNL     1     -21.580   3.570  12.407  1.00  0.00    +0.132 C 
BRANCH  14  15
ATOM     15  C   UNL     1     -23.070   3.675  12.240  1.00  0.00    +0.303 C 
ATOM     16  O   UNL     1     -23.925   3.104  12.894  1.00  0.00    -0.252 OA
BRANCH  15  17
ATOM     17  O   UNL     1     -23.410   4.467  11.204  1.00  0.00    -0.481 OA
ATOM     18  H   UNL     1     -23.943   5.180  11.613  1.00  0.00    +0.296 HD
ENDBRANCH  15  17
ENDBRANCH  14  15
ENDBRANCH  13  14
ENDBRANCH  10  13
ENDBRANCH   7   9
ENDBRANCH   4   7
ENDBRANCH   1   3
BRANCH   1  19
ATOM     19  C   UNL     1     -23.917   7.399   9.377  1.00  0.00    +0.245 C 
ATOM     20  O   UNL     1     -24.765   6.664   9.898  1.00  0.00    -0.272 OA
BRANCH  19  21
ATOM     21  N   UNL     1     -23.418   8.496  10.040  1.00  0.00    -0.329 N 
ATOM     22  C   UNL     1     -23.004   9.771   9.474  1.00  0.00    +0.120 C 
ATOM     23  C   UNL     1     -23.156   8.439  11.473  1.00  0.00    +0.174 C 
ATOM     24  C   UNL     1     -22.341  10.517  10.625  1.00  0.00    +0.024 C 
ATOM     25  C   UNL     1     -22.986   9.906  11.867  1.00  0.00    +0.037 C 
BRANCH  23  26
ATOM     26  C   UNL     1     -21.865   7.646  11.783  1.00  0.00    +0.243 C 
ATOM     27  O   UNL     1     -21.459   6.712  11.094  1.00  0.00    -0.273 OA
ATOM     28  N   UNL     1     -21.167   8.117  12.882  1.00  0.00    -0.342 N 
ATOM     29  H   UNL     1     -21.352   9.077  13.154  1.00  0.00    +0.164 HD
BRANCH  28  30
ATOM     30  C   UNL     1     -19.800   7.655  13.131  1.00  0.00    +0.176 C 
BRANCH  30  31
ATOM     31  C   UNL     1     -19.635   7.229  14.598  1.00  0.00    +0.070 C 
BRANCH  31  32
ATOM     32  C   UNL     1     -18.924   5.906  14.758  1.00  0.00    -0.045 A 
ATOM     33  C   UNL     1     -18.552   5.446  16.028  1.00  0.00    +0.004 A 
ATOM     34  C   UNL     1     -18.593   5.140  13.632  1.00  0.00    +0.004 A 
ATOM     35  C   UNL     1     -17.852   4.246  16.168  1.00  0.00    +0.000 A 
ATOM     36  C   UNL     1     -17.894   3.941  13.774  1.00  0.00    +0.000 A 
ATOM     37  C   UNL     1     -17.522   3.496  15.041  1.00  0.00    +0.000 A 
ENDBRANCH  31  32
ENDBRANCH  30  31
BRANCH  30  38
ATOM     38  C   UNL     1     -18.859   8.839  12.796  1.00  0.00    +0.247 C 
ATOM     39  O   UNL     1     -18.741   9.233  11.635  1.00  0.00    -0.272 OA
ATOM     40  N   UNL     1     -18.253   9.392  13.911  1.00  0.00    -0.324 N 
ATOM     41  H   UNL     1     -18.498   8.984  14.808  1.00  0.00    +0.170 HD
BRANCH  40  42
ATOM     42  C   UNL     1     -17.378  10.494  13.961  1.00  0.00    +0.041 A 
ATOM     43  C   UNL     1     -16.073  10.436  14.459  1.00  0.00    +0.033 A 
ATOM     44  C   UNL     1     -17.868  11.715  13.477  1.00  0.00    +0.033 A 
ATOM     45  C   UNL     1     -15.263  11.578  14.474  1.00  0.00    +0.088 A 
ATOM     46  C   UNL     1     -17.069  12.864  13.485  1.00  0.00    +0.088 A 
ATOM     47  C   UNL     1     -15.765  12.789  13.986  1.00  0.00    +0.269 A 
BRANCH  47  48
ATOM     48  N   UNL     1     -14.918  13.988  13.997  1.00  0.00    +0.062 N 
ATOM     49  O   UNL     1     -14.851  14.635  15.053  1.00  0.00    -0.258 OA
ATOM     50  O   UNL     1     -14.323  14.285  12.952  1.00  0.00    -0.258 OA
ENDBRANCH  47  48
ENDBRANCH  40  42
ENDBRANCH  30  38
ENDBRANCH  28  30
ENDBRANCH  23  26
ENDBRANCH  19  21
ENDBRANCH   1  19
TORSDOF 16
ENDMDL
MODEL 9
REMARK VINA RESULT:    -5.567     24.621     28.924
REMARK INTER + INTRA:         -13.735
REMARK INTER:                 -12.153
REMARK INTRA:                  -1.582
REMARK UNBOUND:                -3.124
REMARK SMILES C[C@H](NC(=O)CCC(=O)O)C(=O)N[C@@H](C)C(=O)N1CCC[C@@H]1C(=O)N[C@H](Cc1ccccc1)C(=O)Nc1ccc([N+](=O)[O-])cc1
REMARK SMILES IDX 14 1 15 2 13 3 11 4 12 5 2 7 1 8 3 9 4 10 5 11 6 13 7 14
REMARK SMILES IDX 8 15 9 16 10 17 16 19 17 20 18 21 19 22 22 23 20 24 21 25
REMARK SMILES IDX 23 26 24 27 25 28 26 30 27 31 28 32 29 33 33 34 30 35 32 36
REMARK SMILES IDX 31 37 34 38 35 39 36 40 37 42 38 43 45 44 39 45 44 46 40 47
REMARK SMILES IDX 41 48 42 49 43 50
REMARK H PARENT 13 6 3 12 10 18 25 29 36 41
ROOT
ATOM      1  C   UNL     1       0.346  10.426  -4.346  1.00  0.00    +0.168 C 
ATOM      2  C   UNL     1      -0.162   9.443  -3.296  1.00  0.00    +0.041 C 
ENDROOT
BRANCH   1   3
ATOM      3  N   UNL     1       1.257  11.393  -3.744  1.00  0.00    -0.343 N 
ATOM      4  C   UNL     1       1.022  11.997  -2.529  1.00  0.00    +0.242 C 
ATOM      5  O   UNL     1       0.011  11.775  -1.868  1.00  0.00    -0.273 OA
ATOM      6  H   UNL     1       2.180  11.487  -4.164  1.00  0.00    +0.164 HD
BRANCH   4   7
ATOM      7  C   UNL     1       2.200  12.859  -2.029  1.00  0.00    +0.168 C 
ATOM      8  C   UNL     1       2.036  14.315  -2.443  1.00  0.00    +0.041 C 
BRANCH   7   9
ATOM      9  N   UNL     1       3.467  12.311  -2.520  1.00  0.00    -0.345 N 
ATOM     10  C   UNL     1       4.676  12.866  -2.168  1.00  0.00    +0.221 C 
ATOM     11  O   UNL     1       4.790  13.767  -1.346  1.00  0.00    -0.275 OA
ATOM     12  H   UNL     1       3.426  11.706  -3.332  1.00  0.00    +0.164 HD
BRANCH  10  13
ATOM     13  C   UNL     1       5.855  12.212  -2.859  1.00  0.00    +0.111 C 
BRANCH  13  14
ATOM     14  C   UNL     1       6.560  13.176  -3.805  1.00  0.00    +0.132 C 
BRANCH  14  15
ATOM     15  C   UNL     1       5.657  13.568  -4.941  1.00  0.00    +0.303 C 
ATOM     16  O   UNL     1       5.091  14.637  -5.093  1.00  0.00    -0.252 OA
BRANCH  15  17
ATOM     17  O   UNL     1       5.469  12.559  -5.813  1.00  0.00    -0.481 OA
ATOM     18  H   UNL     1       5.203  13.006  -6.643  1.00  0.00    +0.296 HD
ENDBRANCH  15  17
ENDBRANCH  14  15
ENDBRANCH  13  14
ENDBRANCH  10  13
ENDBRANCH   7   9
ENDBRANCH   4   7
ENDBRANCH   1   3
BRANCH   1  19
ATOM     19  C   UNL     1      -0.830  11.221  -4.948  1.00  0.00    +0.245 C 
ATOM     20  O   UNL     1      -0.656  12.368  -5.375  1.00  0.00    -0.272 OA
BRANCH  19  21
ATOM     21  N   UNL     1      -2.074  10.634  -4.960  1.00  0.00    -0.329 N 
ATOM     22  C   UNL     1      -2.830  10.162  -6.110  1.00  0.00    +0.120 C 
ATOM     23  C   UNL     1      -2.844  10.509  -3.727  1.00  0.00    +0.174 C 
ATOM     24  C   UNL     1      -4.208   9.815  -5.561  1.00  0.00    +0.024 C 
ATOM     25  C   UNL     1      -3.940   9.507  -4.090  1.00  0.00    +0.037 C 
BRANCH  23  26
ATOM     26  C   UNL     1      -3.468  11.860  -3.307  1.00  0.00    +0.243 C 
ATOM     27  O   UNL     1      -4.483  12.329  -3.818  1.00  0.00    -0.273 OA
ATOM     28  N   UNL     1      -2.811  12.478  -2.257  1.00  0.00    -0.342 N 
ATOM     29  H   UNL     1      -2.244  11.879  -1.666  1.00  0.00    +0.164 HD
BRANCH  28  30
ATOM     30  C   UNL     1      -3.437  13.610  -1.569  1.00  0.00    +0.176 C 
BRANCH  30  31
ATOM     31  C   UNL     1      -2.993  14.936  -2.204  1.00  0.00    +0.070 C 
BRANCH  31  32
ATOM     32  C   UNL     1      -4.149  15.828  -2.592  1.00  0.00    -0.045 A 
ATOM     33  C   UNL     1      -5.471  15.389  -2.440  1.00  0.00    +0.004 A 
ATOM     34  C   UNL     1      -3.911  17.094  -3.145  1.00  0.00    +0.004 A 
ATOM     35  C   UNL     1      -6.535  16.197  -2.844  1.00  0.00    +0.000 A 
ATOM     36  C   UNL     1      -4.977  17.900  -3.548  1.00  0.00    +0.000 A 
ATOM     37  C   UNL     1      -6.287  17.450  -3.400  1.00  0.00    +0.000 A 
ENDBRANCH  31  32
ENDBRANCH  30  31
BRANCH  30  38
ATOM     38  C   UNL     1      -2.993  13.536  -0.088  1.00  0.00    +0.247 C 
ATOM     39  O   UNL     1      -3.665  14.075   0.793  1.00  0.00    -0.272 OA
ATOM     40  N   UNL     1      -1.847  12.784   0.106  1.00  0.00    -0.324 N 
ATOM     41  H   UNL     1      -1.441  12.358  -0.722  1.00  0.00    +0.170 HD
BRANCH  40  42
ATOM     42  C   UNL     1      -1.203  12.488   1.322  1.00  0.00    +0.041 A 
ATOM     43  C   UNL     1      -1.787  11.755   2.360  1.00  0.00    +0.033 A 
ATOM     44  C   UNL     1       0.105  12.969   1.480  1.00  0.00    +0.033 A 
ATOM     45  C   UNL     1      -1.079  11.501   3.540  1.00  0.00    +0.088 A 
ATOM     46  C   UNL     1       0.824  12.721   2.655  1.00  0.00    +0.088 A 
ATOM     47  C   UNL     1       0.226  11.985   3.684  1.00  0.00    +0.269 A 
BRANCH  47  48
ATOM     48  N   UNL     1       0.973  11.719   4.919  1.00  0.00    +0.062 N 
ATOM     49  O   UNL     1       1.568  10.635   5.010  1.00  0.00    -0.258 OA
ATOM     50  O   UNL     1       0.962  12.591   5.800  1.00  0.00    -0.258 OA
ENDBRANCH  47  48
ENDBRANCH  40  42
ENDBRANCH  30  38
ENDBRANCH  28  30
ENDBRANCH  23  26
ENDBRANCH  19  21
ENDBRANCH   1  19
TORSDOF 16
ENDMDL
