MODEL 1
REMARK VINA RESULT:    -6.696      0.000      0.000
REMARK INTER + INTRA:         -16.388
REMARK INTER:                 -12.764
REMARK INTRA:                  -3.623
REMARK UNBOUND:                -3.623
REMARK SMILES C[C@H](NC(=O)CCC(=O)O)C(=O)N[C@@H](C)C(=O)N1CCC[C@@H]1C(=O)N[C@H](Cc1ccccc1)C(=O)Nc1ccc([N+](=O)[O-])cc1
REMARK SMILES IDX 14 1 15 2 13 3 11 4 12 5 2 7 1 8 3 9 4 10 5 11 6 13 7 14
REMARK SMILES IDX 8 15 9 16 10 17 16 19 17 20 18 21 19 22 22 23 20 24 21 25
REMARK SMILES IDX 23 26 24 27 25 28 26 30 27 31 28 32 29 33 33 34 30 35 32 36
REMARK SMILES IDX 31 37 34 38 35 39 36 40 37 42 38 43 45 44 39 45 44 46 40 47
REMARK SMILES IDX 41 48 42 49 43 50
REMARK H PARENT 13 6 3 12 10 18 25 29 36 41
ROOT
ATOM      1  C   UNL     1       6.799   0.714 -12.475  1.00  0.00    +0.168 C 
ATOM      2  C   UNL     1       8.140   0.449 -11.798  1.00  0.00    +0.041 C 
ENDROOT
BRANCH   1   3
ATOM      3  N   UNL     1       5.787  -0.219 -11.992  1.00  0.00    -0.343 N 
ATOM      4  C   UNL     1       4.783   0.141 -11.121  1.00  0.00    +0.242 C 
ATOM      5  O   UNL     1       4.677   1.279 -10.673  1.00  0.00    -0.273 OA
ATOM      6  H   UNL     1       5.729  -1.123 -12.457  1.00  0.00    +0.164 HD
BRANCH   4   7
ATOM      7  C   UNL     1       3.745  -0.974 -10.881  1.00  0.00    +0.168 C 
ATOM      8  C   UNL     1       4.396  -2.350 -10.899  1.00  0.00    +0.041 C 
BRANCH   7   9
ATOM      9  N   UNL     1       2.672  -0.886 -11.875  1.00  0.00    -0.345 N 
ATOM     10  C   UNL     1       1.438  -0.367 -11.559  1.00  0.00    +0.221 C 
ATOM     11  O   UNL     1       1.183   0.155 -10.480  1.00  0.00    -0.275 OA
ATOM     12  H   UNL     1       2.761  -1.462 -12.704  1.00  0.00    +0.164 HD
BRANCH  10  13
ATOM     13  C   UNL     1       0.445  -0.456 -12.699  1.00  0.00    +0.111 C 
BRANCH  13  14
ATOM     14  C   UNL     1       1.052   0.018 -14.014  1.00  0.00    +0.132 C 
BRANCH  14  15
ATOM     15  C   UNL     1       0.026   0.005 -15.113  1.00  0.00    +0.303 C 
ATOM     16  O   UNL     1      -1.186  -0.037 -14.986  1.00  0.00    -0.252 OA
BRANCH  15  17
ATOM     17  O   UNL     1       0.591  -0.007 -16.335  1.00  0.00    -0.481 OA
ATOM     18  H   UNL     1       0.312   0.843 -16.736  1.00  0.00    +0.296 HD
ENDBRANCH  15  17
ENDBRANCH  14  15
ENDBRANCH  13  14
ENDBRANCH  10  13
ENDBRANCH   7   9
ENDBRANCH   4   7
ENDBRANCH   1   3
BRANCH   1  19
ATOM     19  C   UNL     1       6.918   0.508 -13.998  1.00  0.00    +0.245 C 
ATOM     20  O   UNL     1       7.985   0.129 -14.497  1.00  0.00    -0.272 OA
BRANCH  19  21
ATOM     21  N   UNL     1       5.824   0.793 -14.782  1.00  0.00    -0.329 N 
ATOM     22  C   UNL     1       4.913   1.921 -14.669  1.00  0.00    +0.120 C 
ATOM     23  C   UNL     1       5.396  -0.137 -15.821  1.00  0.00    +0.174 C 
ATOM     24  C   UNL     1       3.780   1.612 -15.640  1.00  0.00    +0.024 C 
ATOM     25  C   UNL     1       4.432   0.692 -16.669  1.00  0.00    +0.037 C 
BRANCH  23  26
ATOM     26  C   UNL     1       4.668  -1.362 -15.222  1.00  0.00    +0.243 C 
ATOM     27  O   UNL     1       4.428  -1.491 -14.023  1.00  0.00    -0.273 OA
ATOM     28  N   UNL     1       4.253  -2.285 -16.166  1.00  0.00    -0.342 N 
ATOM     29  H   UNL     1       4.152  -1.943 -17.115  1.00  0.00    +0.164 HD
BRANCH  28  30
ATOM     30  C   UNL     1       3.317  -3.346 -15.788  1.00  0.00    +0.176 C 
BRANCH  30  31
ATOM     31  C   UNL     1       3.861  -4.719 -16.211  1.00  0.00    +0.070 C 
BRANCH  31  32
ATOM     32  C   UNL     1       4.270  -5.584 -15.041  1.00  0.00    -0.045 A 
ATOM     33  C   UNL     1       4.191  -6.980 -15.126  1.00  0.00    +0.004 A 
ATOM     34  C   UNL     1       4.699  -4.996 -13.843  1.00  0.00    +0.004 A 
ATOM     35  C   UNL     1       4.525  -7.774 -14.027  1.00  0.00    +0.000 A 
ATOM     36  C   UNL     1       5.032  -5.792 -12.746  1.00  0.00    +0.000 A 
ATOM     37  C   UNL     1       4.942  -7.179 -12.838  1.00  0.00    +0.000 A 
ENDBRANCH  31  32
ENDBRANCH  30  31
BRANCH  30  38
ATOM     38  C   UNL     1       1.980  -3.042 -16.508  1.00  0.00    +0.247 C 
ATOM     39  O   UNL     1       1.975  -2.486 -17.607  1.00  0.00    -0.272 OA
ATOM     40  N   UNL     1       0.869  -3.500 -15.821  1.00  0.00    -0.324 N 
ATOM     41  H   UNL     1       1.047  -3.990 -14.950  1.00  0.00    +0.170 HD
BRANCH  40  42
ATOM     42  C   UNL     1      -0.482  -3.421 -16.212  1.00  0.00    +0.041 A 
ATOM     43  C   UNL     1      -1.554  -3.373 -15.317  1.00  0.00    +0.033 A 
ATOM     44  C   UNL     1      -0.742  -3.390 -17.590  1.00  0.00    +0.033 A 
ATOM     45  C   UNL     1      -2.871  -3.294 -15.785  1.00  0.00    +0.088 A 
ATOM     46  C   UNL     1      -2.054  -3.310 -18.070  1.00  0.00    +0.088 A 
ATOM     47  C   UNL     1      -3.117  -3.262 -17.162  1.00  0.00    +0.269 A 
BRANCH  47  48
ATOM     48  N   UNL     1      -4.496  -3.176 -17.657  1.00  0.00    +0.062 N 
ATOM     49  O   UNL     1      -4.666  -2.800 -18.825  1.00  0.00    -0.258 OA
ATOM     50  O   UNL     1      -5.409  -3.481 -16.876  1.00  0.00    -0.258 OA
ENDBRANCH  47  48
ENDBRANCH  40  42
ENDBRANCH  30  38
ENDBRANCH  28  30
ENDBRANCH  23  26
ENDBRANCH  19  21
ENDBRANCH   1  19
TORSDOF 16
ENDMDL
MODEL 2
REMARK VINA RESULT:    -6.687      3.428      9.159
REMARK INTER + INTRA:         -16.370
REMARK INTER:                 -12.871
REMARK INTRA:                  -3.499
REMARK UNBOUND:                -3.623
REMARK SMILES C[C@H](NC(=O)CCC(=O)O)C(=O)N[C@@H](C)C(=O)N1CCC[C@@H]1C(=O)N[C@H](Cc1ccccc1)C(=O)Nc1ccc([N+](=O)[O-])cc1
REMARK SMILES IDX 14 1 15 2 13 3 11 4 12 5 2 7 1 8 3 9 4 10 5 11 6 13 7 14
REMARK SMILES IDX 8 15 9 16 10 17 16 19 17 20 18 21 19 22 22 23 20 24 21 25
REMARK SMILES IDX 23 26 24 27 25 28 26 30 27 31 28 32 29 33 33 34 30 35 32 36
REMARK SMILES IDX 31 37 34 38 35 39 36 40 37 42 38 43 45 44 39 45 44 46 40 47
REMARK SMILES IDX 41 48 42 49 43 50
REMARK H PARENT 13 6 3 12 10 18 25 29 36 41
ROOT
ATOM      1  C   UNL     1       4.055   3.816 -14.783  1.00  0.00    +0.168 C 
ATOM      2  C   UNL     1       4.223   4.725 -15.995  1.00  0.00    +0.041 C 
ENDROOT
BRANCH   1   3
ATOM      3  N   UNL     1       3.046   2.795 -15.043  1.00  0.00    -0.343 N 
ATOM      4  C   UNL     1       3.356   1.493 -15.368  1.00  0.00    +0.242 C 
ATOM      5  O   UNL     1       4.513   1.101 -15.481  1.00  0.00    -0.273 OA
ATOM      6  H   UNL     1       2.083   3.021 -14.802  1.00  0.00    +0.164 HD
BRANCH   4   7
ATOM      7  C   UNL     1       2.125   0.565 -15.441  1.00  0.00    +0.168 C 
ATOM      8  C   UNL     1       0.907   1.302 -15.981  1.00  0.00    +0.041 C 
BRANCH   7   9
ATOM      9  N   UNL     1       1.852  -0.010 -14.122  1.00  0.00    -0.345 N 
ATOM     10  C   UNL     1       1.330  -1.276 -13.983  1.00  0.00    +0.221 C 
ATOM     11  O   UNL     1       1.166  -2.044 -14.922  1.00  0.00    -0.275 OA
ATOM     12  H   UNL     1       1.787   0.633 -13.341  1.00  0.00    +0.164 HD
BRANCH  10  13
ATOM     13  C   UNL     1       1.032  -1.642 -12.543  1.00  0.00    +0.111 C 
BRANCH  13  14
ATOM     14  C   UNL     1       0.130  -0.612 -11.875  1.00  0.00    +0.132 C 
BRANCH  14  15
ATOM     15  C   UNL     1       0.814   0.010 -10.689  1.00  0.00    +0.303 C 
ATOM     16  O   UNL     1       0.464   1.005 -10.078  1.00  0.00    -0.252 OA
BRANCH  15  17
ATOM     17  O   UNL     1       1.950  -0.634 -10.362  1.00  0.00    -0.481 OA
ATOM     18  H   UNL     1       2.437  -0.705 -11.210  1.00  0.00    +0.296 HD
ENDBRANCH  15  17
ENDBRANCH  14  15
ENDBRANCH  13  14
ENDBRANCH  10  13
ENDBRANCH   7   9
ENDBRANCH   4   7
ENDBRANCH   1   3
BRANCH   1  19
ATOM     19  C   UNL     1       3.575   4.631 -13.565  1.00  0.00    +0.245 C 
ATOM     20  O   UNL     1       2.571   5.348 -13.648  1.00  0.00    -0.272 OA
BRANCH  19  21
ATOM     21  N   UNL     1       4.314   4.566 -12.406  1.00  0.00    -0.329 N 
ATOM     22  C   UNL     1       5.574   5.229 -12.110  1.00  0.00    +0.120 C 
ATOM     23  C   UNL     1       3.908   3.682 -11.319  1.00  0.00    +0.174 C 
ATOM     24  C   UNL     1       6.033   4.631 -10.786  1.00  0.00    +0.024 C 
ATOM     25  C   UNL     1       4.733   4.172 -10.130  1.00  0.00    +0.037 C 
BRANCH  23  26
ATOM     26  C   UNL     1       4.243   2.206 -11.633  1.00  0.00    +0.243 C 
ATOM     27  O   UNL     1       3.457   1.430 -12.174  1.00  0.00    -0.273 OA
ATOM     28  N   UNL     1       5.536   1.841 -11.302  1.00  0.00    -0.342 N 
ATOM     29  H   UNL     1       6.209   2.595 -11.220  1.00  0.00    +0.164 HD
BRANCH  28  30
ATOM     30  C   UNL     1       6.085   0.572 -11.788  1.00  0.00    +0.176 C 
BRANCH  30  31
ATOM     31  C   UNL     1       5.675  -0.582 -10.861  1.00  0.00    +0.070 C 
BRANCH  31  32
ATOM     32  C   UNL     1       5.316  -1.846 -11.607  1.00  0.00    -0.045 A 
ATOM     33  C   UNL     1       4.865  -1.789 -12.932  1.00  0.00    +0.004 A 
ATOM     34  C   UNL     1       5.395  -3.091 -10.967  1.00  0.00    +0.004 A 
ATOM     35  C   UNL     1       4.489  -2.954 -13.601  1.00  0.00    +0.000 A 
ATOM     36  C   UNL     1       5.019  -4.255 -11.638  1.00  0.00    +0.000 A 
ATOM     37  C   UNL     1       4.563  -4.186 -12.953  1.00  0.00    +0.000 A 
ENDBRANCH  31  32
ENDBRANCH  30  31
BRANCH  30  38
ATOM     38  C   UNL     1       7.625   0.732 -11.816  1.00  0.00    +0.247 C 
ATOM     39  O   UNL     1       8.356  -0.259 -11.786  1.00  0.00    -0.272 OA
ATOM     40  N   UNL     1       8.039   2.048 -11.931  1.00  0.00    -0.324 N 
ATOM     41  H   UNL     1       7.307   2.748 -12.000  1.00  0.00    +0.170 HD
BRANCH  40  42
ATOM     42  C   UNL     1       9.358   2.534 -12.021  1.00  0.00    +0.041 A 
ATOM     43  C   UNL     1      10.342   1.980 -12.843  1.00  0.00    +0.033 A 
ATOM     44  C   UNL     1       9.679   3.645 -11.227  1.00  0.00    +0.033 A 
ATOM     45  C   UNL     1      11.632   2.523 -12.878  1.00  0.00    +0.088 A 
ATOM     46  C   UNL     1      10.964   4.198 -11.253  1.00  0.00    +0.088 A 
ATOM     47  C   UNL     1      11.939   3.632 -12.082  1.00  0.00    +0.269 A 
BRANCH  47  48
ATOM     48  N   UNL     1      13.289   4.206 -12.117  1.00  0.00    +0.062 N 
ATOM     49  O   UNL     1      14.114   3.690 -12.885  1.00  0.00    -0.258 OA
ATOM     50  O   UNL     1      13.526   5.171 -11.376  1.00  0.00    -0.258 OA
ENDBRANCH  47  48
ENDBRANCH  40  42
ENDBRANCH  30  38
ENDBRANCH  28  30
ENDBRANCH  23  26
ENDBRANCH  19  21
ENDBRANCH   1  19
TORSDOF 16
ENDMDL
MODEL 3
REMARK VINA RESULT:    -6.531     28.836     32.473
REMARK INTER + INTRA:         -16.072
REMARK INTER:                 -11.444
REMARK INTRA:                  -4.628
REMARK UNBOUND:                -3.623
REMARK SMILES C[C@H](NC(=O)CCC(=O)O)C(=O)N[C@@H](C)C(=O)N1CCC[C@@H]1C(=O)N[C@H](Cc1ccccc1)C(=O)Nc1ccc([N+](=O)[O-])cc1
REMARK SMILES IDX 14 1 15 2 13 3 11 4 12 5 2 7 1 8 3 9 4 10 5 11 6 13 7 14
REMARK SMILES IDX 8 15 9 16 10 17 16 19 17 20 18 21 19 22 22 23 20 24 21 25
REMARK SMILES IDX 23 26 24 27 25 28 26 30 27 31 28 32 29 33 33 34 30 35 32 36
REMARK SMILES IDX 31 37 34 38 35 39 36 40 37 42 38 43 45 44 39 45 44 46 40 47
REMARK SMILES IDX 41 48 42 49 43 50
REMARK H PARENT 13 6 3 12 10 18 25 29 36 41
ROOT
ATOM      1  C   UNL     1       2.998 -13.313  15.656  1.00  0.00    +0.168 C 
ATOM      2  C   UNL     1       3.659 -14.441  14.871  1.00  0.00    +0.041 C 
ENDROOT
BRANCH   1   3
ATOM      3  N   UNL     1       1.554 -13.512  15.724  1.00  0.00    -0.343 N 
ATOM      4  C   UNL     1       0.909 -13.982  16.846  1.00  0.00    +0.242 C 
ATOM      5  O   UNL     1       1.511 -14.284  17.873  1.00  0.00    -0.273 OA
ATOM      6  H   UNL     1       0.995 -13.123  14.967  1.00  0.00    +0.164 HD
BRANCH   4   7
ATOM      7  C   UNL     1      -0.629 -13.958  16.730  1.00  0.00    +0.168 C 
ATOM      8  C   UNL     1      -1.251 -15.199  17.356  1.00  0.00    +0.041 C 
BRANCH   7   9
ATOM      9  N   UNL     1      -1.025 -13.821  15.326  1.00  0.00    -0.345 N 
ATOM     10  C   UNL     1      -2.148 -13.116  14.960  1.00  0.00    +0.221 C 
ATOM     11  O   UNL     1      -2.823 -12.467  15.750  1.00  0.00    -0.275 OA
ATOM     12  H   UNL     1      -0.625 -14.479  14.666  1.00  0.00    +0.164 HD
BRANCH  10  13
ATOM     13  C   UNL     1      -2.432 -13.178  13.473  1.00  0.00    +0.111 C 
BRANCH  13  14
ATOM     14  C   UNL     1      -1.677 -12.097  12.709  1.00  0.00    +0.132 C 
BRANCH  14  15
ATOM     15  C   UNL     1      -0.451 -12.665  12.049  1.00  0.00    +0.303 C 
ATOM     16  O   UNL     1      -0.390 -13.213  10.962  1.00  0.00    -0.252 OA
BRANCH  15  17
ATOM     17  O   UNL     1       0.641 -12.559  12.830  1.00  0.00    -0.481 OA
ATOM     18  H   UNL     1       1.259 -13.230  12.469  1.00  0.00    +0.296 HD
ENDBRANCH  15  17
ENDBRANCH  14  15
ENDBRANCH  13  14
ENDBRANCH  10  13
ENDBRANCH   7   9
ENDBRANCH   4   7
ENDBRANCH   1   3
BRANCH   1  19
ATOM     19  C   UNL     1       3.238 -11.960  14.955  1.00  0.00    +0.245 C 
ATOM     20  O   UNL     1       3.528 -11.921  13.754  1.00  0.00    -0.272 OA
BRANCH  19  21
ATOM     21  N   UNL     1       3.158 -10.813  15.709  1.00  0.00    -0.329 N 
ATOM     22  C   UNL     1       3.573 -10.619  17.091  1.00  0.00    +0.120 C 
ATOM     23  C   UNL     1       2.514  -9.619  15.173  1.00  0.00    +0.174 C 
ATOM     24  C   UNL     1       3.053  -9.237  17.468  1.00  0.00    +0.024 C 
ATOM     25  C   UNL     1       2.959  -8.512  16.129  1.00  0.00    +0.037 C 
BRANCH  23  26
ATOM     26  C   UNL     1       0.975  -9.751  15.183  1.00  0.00    +0.243 C 
ATOM     27  O   UNL     1       0.384 -10.818  15.340  1.00  0.00    -0.273 OA
ATOM     28  N   UNL     1       0.307  -8.544  15.056  1.00  0.00    -0.342 N 
ATOM     29  H   UNL     1       0.831  -7.712  15.304  1.00  0.00    +0.164 HD
BRANCH  28  30
ATOM     30  C   UNL     1      -1.131  -8.473  15.325  1.00  0.00    +0.176 C 
BRANCH  30  31
ATOM     31  C   UNL     1      -1.854  -7.730  14.191  1.00  0.00    +0.070 C 
BRANCH  31  32
ATOM     32  C   UNL     1      -2.980  -8.530  13.577  1.00  0.00    -0.045 A 
ATOM     33  C   UNL     1      -3.289  -8.396  12.217  1.00  0.00    +0.004 A 
ATOM     34  C   UNL     1      -3.753  -9.388  14.371  1.00  0.00    +0.004 A 
ATOM     35  C   UNL     1      -4.360  -9.100  11.664  1.00  0.00    +0.000 A 
ATOM     36  C   UNL     1      -4.822 -10.091  13.816  1.00  0.00    +0.000 A 
ATOM     37  C   UNL     1      -5.127  -9.945  12.464  1.00  0.00    +0.000 A 
ENDBRANCH  31  32
ENDBRANCH  30  31
BRANCH  30  38
ATOM     38  C   UNL     1      -1.299  -7.720  16.668  1.00  0.00    +0.247 C 
ATOM     39  O   UNL     1      -1.962  -8.213  17.581  1.00  0.00    -0.272 OA
ATOM     40  N   UNL     1      -0.602  -6.526  16.719  1.00  0.00    -0.324 N 
ATOM     41  H   UNL     1      -0.055  -6.286  15.897  1.00  0.00    +0.170 HD
BRANCH  40  42
ATOM     42  C   UNL     1      -0.511  -5.623  17.796  1.00  0.00    +0.041 A 
ATOM     43  C   UNL     1      -0.682  -4.242  17.678  1.00  0.00    +0.033 A 
ATOM     44  C   UNL     1      -0.230  -6.170  19.057  1.00  0.00    +0.033 A 
ATOM     45  C   UNL     1      -0.577  -3.410  18.799  1.00  0.00    +0.088 A 
ATOM     46  C   UNL     1      -0.123  -5.350  20.186  1.00  0.00    +0.088 A 
ATOM     47  C   UNL     1      -0.298  -3.969  20.052  1.00  0.00    +0.269 A 
BRANCH  47  48
ATOM     48  N   UNL     1      -0.189  -3.101  21.231  1.00  0.00    +0.062 N 
ATOM     49  O   UNL     1       0.845  -3.179  21.909  1.00  0.00    -0.258 OA
ATOM     50  O   UNL     1      -1.138  -2.344  21.479  1.00  0.00    -0.258 OA
ENDBRANCH  47  48
ENDBRANCH  40  42
ENDBRANCH  30  38
ENDBRANCH  28  30
ENDBRANCH  23  26
ENDBRANCH  19  21
ENDBRANCH   1  19
TORSDOF 16
ENDMDL
MODEL 4
REMARK VINA RESULT:    -6.504      6.468     10.407
REMARK INTER + INTRA:         -16.021
REMARK INTER:                 -13.802
REMARK INTRA:                  -2.219
REMARK UNBOUND:                -3.623
REMARK SMILES C[C@H](NC(=O)CCC(=O)O)C(=O)N[C@@H](C)C(=O)N1CCC[C@@H]1C(=O)N[C@H](Cc1ccccc1)C(=O)Nc1ccc([N+](=O)[O-])cc1
REMARK SMILES IDX 14 1 15 2 13 3 11 4 12 5 2 7 1 8 3 9 4 10 5 11 6 13 7 14
REMARK SMILES IDX 8 15 9 16 10 17 16 19 17 20 18 21 19 22 22 23 20 24 21 25
REMARK SMILES IDX 23 26 24 27 25 28 26 30 27 31 28 32 29 33 33 34 30 35 32 36
REMARK SMILES IDX 31 37 34 38 35 39 36 40 37 42 38 43 45 44 39 45 44 46 40 47
REMARK SMILES IDX 41 48 42 49 43 50
REMARK H PARENT 13 6 3 12 10 18 25 29 36 41
ROOT
ATOM      1  C   UNL     1       5.374   3.136 -13.180  1.00  0.00    +0.168 C 
ATOM      2  C   UNL     1       6.758   3.179 -13.820  1.00  0.00    +0.041 C 
ENDROOT
BRANCH   1   3
ATOM      3  N   UNL     1       5.165   1.866 -12.494  1.00  0.00    -0.343 N 
ATOM      4  C   UNL     1       4.354   1.728 -11.390  1.00  0.00    +0.242 C 
ATOM      5  O   UNL     1       3.758   2.678 -10.889  1.00  0.00    -0.273 OA
ATOM      6  H   UNL     1       5.498   1.025 -12.962  1.00  0.00    +0.164 HD
BRANCH   4   7
ATOM      7  C   UNL     1       4.167   0.265 -10.939  1.00  0.00    +0.168 C 
ATOM      8  C   UNL     1       5.508  -0.421 -10.714  1.00  0.00    +0.041 C 
BRANCH   7   9
ATOM      9  N   UNL     1       3.360  -0.464 -11.921  1.00  0.00    -0.345 N 
ATOM     10  C   UNL     1       1.985  -0.422 -11.895  1.00  0.00    +0.221 C 
ATOM     11  O   UNL     1       1.346   0.303 -11.141  1.00  0.00    -0.275 OA
ATOM     12  H   UNL     1       3.816  -1.211 -12.431  1.00  0.00    +0.164 HD
BRANCH  10  13
ATOM     13  C   UNL     1       1.343  -1.320 -12.933  1.00  0.00    +0.111 C 
BRANCH  13  14
ATOM     14  C   UNL     1      -0.054  -0.840 -13.308  1.00  0.00    +0.132 C 
BRANCH  14  15
ATOM     15  C   UNL     1      -0.004   0.080 -14.496  1.00  0.00    +0.303 C 
ATOM     16  O   UNL     1       0.816   0.956 -14.713  1.00  0.00    -0.252 OA
BRANCH  15  17
ATOM     17  O   UNL     1      -1.037  -0.120 -15.337  1.00  0.00    -0.481 OA
ATOM     18  H   UNL     1      -1.762  -0.430 -14.755  1.00  0.00    +0.296 HD
ENDBRANCH  15  17
ENDBRANCH  14  15
ENDBRANCH  13  14
ENDBRANCH  10  13
ENDBRANCH   7   9
ENDBRANCH   4   7
ENDBRANCH   1   3
BRANCH   1  19
ATOM     19  C   UNL     1       4.281   3.255 -14.261  1.00  0.00    +0.245 C 
ATOM     20  O   UNL     1       4.161   2.383 -15.129  1.00  0.00    -0.272 OA
BRANCH  19  21
ATOM     21  N   UNL     1       3.476   4.371 -14.253  1.00  0.00    -0.329 N 
ATOM     22  C   UNL     1       2.489   4.770 -15.245  1.00  0.00    +0.120 C 
ATOM     23  C   UNL     1       3.620   5.380 -13.209  1.00  0.00    +0.174 C 
ATOM     24  C   UNL     1       2.067   6.176 -14.839  1.00  0.00    +0.024 C 
ATOM     25  C   UNL     1       2.347   6.215 -13.339  1.00  0.00    +0.037 C 
BRANCH  23  26
ATOM     26  C   UNL     1       4.868   6.262 -13.440  1.00  0.00    +0.243 C 
ATOM     27  O   UNL     1       5.403   6.410 -14.538  1.00  0.00    -0.273 OA
ATOM     28  N   UNL     1       5.305   6.924 -12.306  1.00  0.00    -0.342 N 
ATOM     29  H   UNL     1       4.622   7.048 -11.567  1.00  0.00    +0.164 HD
BRANCH  28  30
ATOM     30  C   UNL     1       6.292   8.001 -12.423  1.00  0.00    +0.176 C 
BRANCH  30  31
ATOM     31  C   UNL     1       7.175   8.060 -11.168  1.00  0.00    +0.070 C 
BRANCH  31  32
ATOM     32  C   UNL     1       8.120   6.886 -11.049  1.00  0.00    -0.045 A 
ATOM     33  C   UNL     1       9.444   6.990 -11.495  1.00  0.00    +0.004 A 
ATOM     34  C   UNL     1       7.671   5.666 -10.525  1.00  0.00    +0.004 A 
ATOM     35  C   UNL     1      10.301   5.890 -11.428  1.00  0.00    +0.000 A 
ATOM     36  C   UNL     1       8.529   4.568 -10.459  1.00  0.00    +0.000 A 
ATOM     37  C   UNL     1       9.841   4.679 -10.913  1.00  0.00    +0.000 A 
ENDBRANCH  31  32
ENDBRANCH  30  31
BRANCH  30  38
ATOM     38  C   UNL     1       5.498   9.320 -12.596  1.00  0.00    +0.247 C 
ATOM     39  O   UNL     1       5.729  10.287 -11.870  1.00  0.00    -0.272 OA
ATOM     40  N   UNL     1       4.594   9.284 -13.644  1.00  0.00    -0.324 N 
ATOM     41  H   UNL     1       4.562   8.424 -14.184  1.00  0.00    +0.170 HD
BRANCH  40  42
ATOM     42  C   UNL     1       3.749  10.317 -14.092  1.00  0.00    +0.041 A 
ATOM     43  C   UNL     1       4.204  11.541 -14.589  1.00  0.00    +0.033 A 
ATOM     44  C   UNL     1       2.368  10.080 -14.025  1.00  0.00    +0.033 A 
ATOM     45  C   UNL     1       3.298  12.519 -15.018  1.00  0.00    +0.088 A 
ATOM     46  C   UNL     1       1.452  11.048 -14.451  1.00  0.00    +0.088 A 
ATOM     47  C   UNL     1       1.924  12.268 -14.947  1.00  0.00    +0.269 A 
BRANCH  47  48
ATOM     48  N   UNL     1       0.970  13.290 -15.397  1.00  0.00    +0.062 N 
ATOM     49  O   UNL     1      -0.169  13.269 -14.909  1.00  0.00    -0.258 OA
ATOM     50  O   UNL     1       1.360  14.111 -16.240  1.00  0.00    -0.258 OA
ENDBRANCH  47  48
ENDBRANCH  40  42
ENDBRANCH  30  38
ENDBRANCH  28  30
ENDBRANCH  23  26
ENDBRANCH  19  21
ENDBRANCH   1  19
TORSDOF 16
ENDMDL
MODEL 5
REMARK VINA RESULT:    -6.443      3.676      8.706
REMARK INTER + INTRA:         -15.905
REMARK INTER:                 -12.872
REMARK INTRA:                  -3.033
REMARK UNBOUND:                -3.623
REMARK SMILES C[C@H](NC(=O)CCC(=O)O)C(=O)N[C@@H](C)C(=O)N1CCC[C@@H]1C(=O)N[C@H](Cc1ccccc1)C(=O)Nc1ccc([N+](=O)[O-])cc1
REMARK SMILES IDX 14 1 15 2 13 3 11 4 12 5 2 7 1 8 3 9 4 10 5 11 6 13 7 14
REMARK SMILES IDX 8 15 9 16 10 17 16 19 17 20 18 21 19 22 22 23 20 24 21 25
REMARK SMILES IDX 23 26 24 27 25 28 26 30 27 31 28 32 29 33 33 34 30 35 32 36
REMARK SMILES IDX 31 37 34 38 35 39 36 40 37 42 38 43 45 44 39 45 44 46 40 47
REMARK SMILES IDX 41 48 42 49 43 50
REMARK H PARENT 13 6 3 12 10 18 25 29 36 41
ROOT
ATOM      1  C   UNL     1       6.846  -1.003 -15.049  1.00  0.00    +0.168 C 
ATOM      2  C   UNL     1       7.004  -2.413 -15.608  1.00  0.00    +0.041 C 
ENDROOT
BRANCH   1   3
ATOM      3  N   UNL     1       7.498  -0.890 -13.749  1.00  0.00    -0.343 N 
ATOM      4  C   UNL     1       8.295   0.175 -13.394  1.00  0.00    +0.242 C 
ATOM      5  O   UNL     1       8.530   1.105 -14.161  1.00  0.00    -0.273 OA
ATOM      6  H   UNL     1       7.206  -1.543 -13.024  1.00  0.00    +0.164 HD
BRANCH   4   7
ATOM      7  C   UNL     1       8.743   0.147 -11.919  1.00  0.00    +0.168 C 
ATOM      8  C   UNL     1       7.927  -0.854 -11.111  1.00  0.00    +0.041 C 
BRANCH   7   9
ATOM      9  N   UNL     1       8.651   1.491 -11.340  1.00  0.00    -0.345 N 
ATOM     10  C   UNL     1       9.752   2.311 -11.247  1.00  0.00    +0.221 C 
ATOM     11  O   UNL     1      10.842   2.034 -11.732  1.00  0.00    -0.275 OA
ATOM     12  H   UNL     1       7.842   1.692 -10.764  1.00  0.00    +0.164 HD
BRANCH  10  13
ATOM     13  C   UNL     1       9.463   3.615 -10.532  1.00  0.00    +0.111 C 
BRANCH  13  14
ATOM     14  C   UNL     1       9.763   4.820 -11.414  1.00  0.00    +0.132 C 
BRANCH  14  15
ATOM     15  C   UNL     1      11.053   5.475 -11.006  1.00  0.00    +0.303 C 
ATOM     16  O   UNL     1      11.464   6.569 -11.354  1.00  0.00    -0.252 OA
BRANCH  15  17
ATOM     17  O   UNL     1      11.795   4.683 -10.209  1.00  0.00    -0.481 OA
ATOM     18  H   UNL     1      11.217   3.912 -10.033  1.00  0.00    +0.296 HD
ENDBRANCH  15  17
ENDBRANCH  14  15
ENDBRANCH  13  14
ENDBRANCH  10  13
ENDBRANCH   7   9
ENDBRANCH   4   7
ENDBRANCH   1   3
BRANCH   1  19
ATOM     19  C   UNL     1       5.354  -0.674 -14.840  1.00  0.00    +0.245 C 
ATOM     20  O   UNL     1       5.009   0.443 -14.436  1.00  0.00    -0.272 OA
BRANCH  19  21
ATOM     21  N   UNL     1       4.429  -1.664 -15.078  1.00  0.00    -0.329 N 
ATOM     22  C   UNL     1       3.388  -1.691 -16.094  1.00  0.00    +0.120 C 
ATOM     23  C   UNL     1       4.349  -2.827 -14.201  1.00  0.00    +0.174 C 
ATOM     24  C   UNL     1       2.537  -2.909 -15.755  1.00  0.00    +0.024 C 
ATOM     25  C   UNL     1       3.500  -3.819 -14.997  1.00  0.00    +0.037 C 
BRANCH  23  26
ATOM     26  C   UNL     1       3.658  -2.482 -12.862  1.00  0.00    +0.243 C 
ATOM     27  O   UNL     1       3.564  -3.269 -11.922  1.00  0.00    -0.273 OA
ATOM     28  N   UNL     1       3.197  -1.179 -12.788  1.00  0.00    -0.342 N 
ATOM     29  H   UNL     1       3.629  -0.513 -13.420  1.00  0.00    +0.164 HD
BRANCH  28  30
ATOM     30  C   UNL     1       2.776  -0.625 -11.499  1.00  0.00    +0.176 C 
BRANCH  30  31
ATOM     31  C   UNL     1       1.363  -0.033 -11.604  1.00  0.00    +0.070 C 
BRANCH  31  32
ATOM     32  C   UNL     1       0.560  -0.606 -12.748  1.00  0.00    -0.045 A 
ATOM     33  C   UNL     1      -0.071  -1.851 -12.623  1.00  0.00    +0.004 A 
ATOM     34  C   UNL     1       0.468   0.085 -13.964  1.00  0.00    +0.004 A 
ATOM     35  C   UNL     1      -0.772  -2.399 -13.699  1.00  0.00    +0.000 A 
ATOM     36  C   UNL     1      -0.233  -0.465 -15.038  1.00  0.00    +0.000 A 
ATOM     37  C   UNL     1      -0.850  -1.707 -14.905  1.00  0.00    +0.000 A 
ENDBRANCH  31  32
ENDBRANCH  30  31
BRANCH  30  38
ATOM     38  C   UNL     1       3.803   0.472 -11.126  1.00  0.00    +0.247 C 
ATOM     39  O   UNL     1       4.733   0.222 -10.359  1.00  0.00    -0.272 OA
ATOM     40  N   UNL     1       3.581   1.676 -11.772  1.00  0.00    -0.324 N 
ATOM     41  H   UNL     1       2.799   1.704 -12.419  1.00  0.00    +0.170 HD
BRANCH  40  42
ATOM     42  C   UNL     1       4.344   2.856 -11.688  1.00  0.00    +0.041 A 
ATOM     43  C   UNL     1       4.825   3.394 -10.491  1.00  0.00    +0.033 A 
ATOM     44  C   UNL     1       4.625   3.517 -12.893  1.00  0.00    +0.033 A 
ATOM     45  C   UNL     1       5.579   4.574 -10.490  1.00  0.00    +0.088 A 
ATOM     46  C   UNL     1       5.379   4.696 -12.906  1.00  0.00    +0.088 A 
ATOM     47  C   UNL     1       5.854   5.221 -11.700  1.00  0.00    +0.269 A 
BRANCH  47  48
ATOM     48  N   UNL     1       6.647   6.457 -11.704  1.00  0.00    +0.062 N 
ATOM     49  O   UNL     1       7.213   6.773 -12.759  1.00  0.00    -0.258 OA
ATOM     50  O   UNL     1       6.705   7.108 -10.651  1.00  0.00    -0.258 OA
ENDBRANCH  47  48
ENDBRANCH  40  42
ENDBRANCH  30  38
ENDBRANCH  28  30
ENDBRANCH  23  26
ENDBRANCH  19  21
ENDBRANCH   1  19
TORSDOF 16
ENDMDL
MODEL 6
REMARK VINA RESULT:    -6.183      4.325     10.451
REMARK INTER + INTRA:         -15.410
REMARK INTER:                 -13.037
REMARK INTRA:                  -2.372
REMARK UNBOUND:                -3.623
REMARK SMILES C[C@H](NC(=O)CCC(=O)O)C(=O)N[C@@H](C)C(=O)N1CCC[C@@H]1C(=O)N[C@H](Cc1ccccc1)C(=O)Nc1ccc([N+](=O)[O-])cc1
REMARK SMILES IDX 14 1 15 2 13 3 11 4 12 5 2 7 1 8 3 9 4 10 5 11 6 13 7 14
REMARK SMILES IDX 8 15 9 16 10 17 16 19 17 20 18 21 19 22 22 23 20 24 21 25
REMARK SMILES IDX 23 26 24 27 25 28 26 30 27 31 28 32 29 33 33 34 30 35 32 36
REMARK SMILES IDX 31 37 34 38 35 39 36 40 37 42 38 43 45 44 39 45 44 46 40 47
REMARK SMILES IDX 41 48 42 49 43 50
REMARK H PARENT 13 6 3 12 10 18 25 29 36 41
ROOT
ATOM      1  C   UNL     1       3.039   1.424 -14.933  1.00  0.00    +0.168 C 
ATOM      2  C   UNL     1       1.751   1.637 -15.722  1.00  0.00    +0.041 C 
ENDROOT
BRANCH   1   3
ATOM      3  N   UNL     1       2.749   0.850 -13.624  1.00  0.00    -0.343 N 
ATOM      4  C   UNL     1       3.578  -0.052 -12.994  1.00  0.00    +0.242 C 
ATOM      5  O   UNL     1       4.620  -0.454 -13.504  1.00  0.00    -0.273 OA
ATOM      6  H   UNL     1       1.991   1.271 -13.089  1.00  0.00    +0.164 HD
BRANCH   4   7
ATOM      7  C   UNL     1       3.140  -0.393 -11.555  1.00  0.00    +0.168 C 
ATOM      8  C   UNL     1       4.179  -1.255 -10.850  1.00  0.00    +0.041 C 
BRANCH   7   9
ATOM      9  N   UNL     1       1.831  -1.052 -11.571  1.00  0.00    -0.345 N 
ATOM     10  C   UNL     1       0.732  -0.483 -10.971  1.00  0.00    +0.221 C 
ATOM     11  O   UNL     1       0.734   0.644 -10.490  1.00  0.00    -0.275 OA
ATOM     12  H   UNL     1       1.815  -2.044 -11.779  1.00  0.00    +0.164 HD
BRANCH  10  13
ATOM     13  C   UNL     1      -0.497  -1.369 -11.016  1.00  0.00    +0.111 C 
BRANCH  13  14
ATOM     14  C   UNL     1      -0.670  -2.023 -12.382  1.00  0.00    +0.132 C 
BRANCH  14  15
ATOM     15  C   UNL     1      -1.904  -2.882 -12.411  1.00  0.00    +0.303 C 
ATOM     16  O   UNL     1      -2.349  -3.493 -13.367  1.00  0.00    -0.252 OA
BRANCH  15  17
ATOM     17  O   UNL     1      -2.551  -2.883 -11.230  1.00  0.00    -0.481 OA
ATOM     18  H   UNL     1      -3.476  -3.105 -11.464  1.00  0.00    +0.296 HD
ENDBRANCH  15  17
ENDBRANCH  14  15
ENDBRANCH  13  14
ENDBRANCH  10  13
ENDBRANCH   7   9
ENDBRANCH   4   7
ENDBRANCH   1   3
BRANCH   1  19
ATOM     19  C   UNL     1       3.749   2.771 -14.693  1.00  0.00    +0.245 C 
ATOM     20  O   UNL     1       3.118   3.745 -14.265  1.00  0.00    -0.272 OA
BRANCH  19  21
ATOM     21  N   UNL     1       5.086   2.867 -15.003  1.00  0.00    -0.329 N 
ATOM     22  C   UNL     1       5.848   2.053 -15.938  1.00  0.00    +0.120 C 
ATOM     23  C   UNL     1       5.944   3.811 -14.296  1.00  0.00    +0.174 C 
ATOM     24  C   UNL     1       7.301   2.454 -15.716  1.00  0.00    +0.024 C 
ATOM     25  C   UNL     1       7.201   3.872 -15.162  1.00  0.00    +0.037 C 
BRANCH  23  26
ATOM     26  C   UNL     1       6.293   3.307 -12.877  1.00  0.00    +0.243 C 
ATOM     27  O   UNL     1       5.575   2.547 -12.229  1.00  0.00    -0.273 OA
ATOM     28  N   UNL     1       7.522   3.743 -12.413  1.00  0.00    -0.342 N 
ATOM     29  H   UNL     1       8.190   4.036 -13.118  1.00  0.00    +0.164 HD
BRANCH  28  30
ATOM     30  C   UNL     1       8.111   3.133 -11.219  1.00  0.00    +0.176 C 
BRANCH  30  31
ATOM     31  C   UNL     1       8.481   4.213 -10.191  1.00  0.00    +0.070 C 
BRANCH  31  32
ATOM     32  C   UNL     1       8.253   5.619 -10.695  1.00  0.00    -0.045 A 
ATOM     33  C   UNL     1       9.304   6.353 -11.260  1.00  0.00    +0.004 A 
ATOM     34  C   UNL     1       6.993   6.220 -10.567  1.00  0.00    +0.004 A 
ATOM     35  C   UNL     1       9.101   7.668 -11.680  1.00  0.00    +0.000 A 
ATOM     36  C   UNL     1       6.793   7.535 -10.989  1.00  0.00    +0.000 A 
ATOM     37  C   UNL     1       7.847   8.259 -11.542  1.00  0.00    +0.000 A 
ENDBRANCH  31  32
ENDBRANCH  30  31
BRANCH  30  38
ATOM     38  C   UNL     1       9.372   2.364 -11.683  1.00  0.00    +0.247 C 
ATOM     39  O   UNL     1       9.640   1.260 -11.209  1.00  0.00    -0.272 OA
ATOM     40  N   UNL     1      10.079   3.018 -12.678  1.00  0.00    -0.324 N 
ATOM     41  H   UNL     1       9.695   3.901 -13.000  1.00  0.00    +0.170 HD
BRANCH  40  42
ATOM     42  C   UNL     1      11.241   2.581 -13.342  1.00  0.00    +0.041 A 
ATOM     43  C   UNL     1      12.515   2.568 -12.767  1.00  0.00    +0.033 A 
ATOM     44  C   UNL     1      11.086   2.135 -14.663  1.00  0.00    +0.033 A 
ATOM     45  C   UNL     1      13.623   2.116 -13.494  1.00  0.00    +0.088 A 
ATOM     46  C   UNL     1      12.185   1.680 -15.401  1.00  0.00    +0.088 A 
ATOM     47  C   UNL     1      13.453   1.673 -14.811  1.00  0.00    +0.269 A 
BRANCH  47  48
ATOM     48  N   UNL     1      14.611   1.196 -15.576  1.00  0.00    +0.062 N 
ATOM     49  O   UNL     1      15.054   1.933 -16.468  1.00  0.00    -0.258 OA
ATOM     50  O   UNL     1      15.076   0.084 -15.287  1.00  0.00    -0.258 OA
ENDBRANCH  47  48
ENDBRANCH  40  42
ENDBRANCH  30  38
ENDBRANCH  28  30
ENDBRANCH  23  26
ENDBRANCH  19  21
ENDBRANCH   1  19
TORSDOF 16
ENDMDL
MODEL 7
REMARK VINA RESULT:    -6.143      2.258      6.660
REMARK INTER + INTRA:         -15.333
REMARK INTER:                 -12.860
REMARK INTRA:                  -2.473
REMARK UNBOUND:                -3.623
REMARK SMILES C[C@H](NC(=O)CCC(=O)O)C(=O)N[C@@H](C)C(=O)N1CCC[C@@H]1C(=O)N[C@H](Cc1ccccc1)C(=O)Nc1ccc([N+](=O)[O-])cc1
REMARK SMILES IDX 14 1 15 2 13 3 11 4 12 5 2 7 1 8 3 9 4 10 5 11 6 13 7 14
REMARK SMILES IDX 8 15 9 16 10 17 16 19 17 20 18 21 19 22 22 23 20 24 21 25
REMARK SMILES IDX 23 26 24 27 25 28 26 30 27 31 28 32 29 33 33 34 30 35 32 36
REMARK SMILES IDX 31 37 34 38 35 39 36 40 37 42 38 43 45 44 39 45 44 46 40 47
REMARK SMILES IDX 41 48 42 49 43 50
REMARK H PARENT 13 6 3 12 10 18 25 29 36 41
ROOT
ATOM      1  C   UNL     1       3.178   0.305 -13.454  1.00  0.00    +0.168 C 
ATOM      2  C   UNL     1       3.300   1.564 -14.307  1.00  0.00    +0.041 C 
ENDROOT
BRANCH   1   3
ATOM      3  N   UNL     1       1.783  -0.109 -13.349  1.00  0.00    -0.343 N 
ATOM      4  C   UNL     1       1.174  -0.950 -14.254  1.00  0.00    +0.242 C 
ATOM      5  O   UNL     1       1.763  -1.399 -15.233  1.00  0.00    -0.273 OA
ATOM      6  H   UNL     1       1.302   0.097 -12.475  1.00  0.00    +0.164 HD
BRANCH   4   7
ATOM      7  C   UNL     1      -0.253  -1.369 -13.846  1.00  0.00    +0.168 C 
ATOM      8  C   UNL     1      -0.295  -1.860 -12.405  1.00  0.00    +0.041 C 
BRANCH   7   9
ATOM      9  N   UNL     1      -0.759  -2.390 -14.766  1.00  0.00    -0.345 N 
ATOM     10  C   UNL     1      -2.079  -2.418 -15.155  1.00  0.00    +0.221 C 
ATOM     11  O   UNL     1      -2.887  -1.545 -14.861  1.00  0.00    -0.275 OA
ATOM     12  H   UNL     1      -0.198  -3.226 -14.884  1.00  0.00    +0.164 HD
BRANCH  10  13
ATOM     13  C   UNL     1      -2.416  -3.608 -16.029  1.00  0.00    +0.111 C 
BRANCH  13  14
ATOM     14  C   UNL     1      -2.863  -3.177 -17.421  1.00  0.00    +0.132 C 
BRANCH  14  15
ATOM     15  C   UNL     1      -1.717  -3.237 -18.393  1.00  0.00    +0.303 C 
ATOM     16  O   UNL     1      -1.769  -3.550 -19.570  1.00  0.00    -0.252 OA
BRANCH  15  17
ATOM     17  O   UNL     1      -0.539  -2.945 -17.809  1.00  0.00    -0.481 OA
ATOM     18  H   UNL     1       0.078  -2.828 -18.561  1.00  0.00    +0.296 HD
ENDBRANCH  15  17
ENDBRANCH  14  15
ENDBRANCH  13  14
ENDBRANCH  10  13
ENDBRANCH   7   9
ENDBRANCH   4   7
ENDBRANCH   1   3
BRANCH   1  19
ATOM     19  C   UNL     1       3.681   0.577 -12.022  1.00  0.00    +0.245 C 
ATOM     20  O   UNL     1       3.127   1.426 -11.314  1.00  0.00    -0.272 OA
BRANCH  19  21
ATOM     21  N   UNL     1       4.780  -0.119 -11.575  1.00  0.00    -0.329 N 
ATOM     22  C   UNL     1       6.184   0.164 -11.832  1.00  0.00    +0.120 C 
ATOM     23  C   UNL     1       4.615  -1.355 -10.818  1.00  0.00    +0.174 C 
ATOM     24  C   UNL     1       6.936  -1.042 -11.282  1.00  0.00    +0.024 C 
ATOM     25  C   UNL     1       5.997  -1.592 -10.212  1.00  0.00    +0.037 C 
BRANCH  23  26
ATOM     26  C   UNL     1       4.221  -2.534 -11.736  1.00  0.00    +0.243 C 
ATOM     27  O   UNL     1       3.058  -2.820 -12.017  1.00  0.00    -0.273 OA
ATOM     28  N   UNL     1       5.302  -3.216 -12.268  1.00  0.00    -0.342 N 
ATOM     29  H   UNL     1       6.181  -2.712 -12.297  1.00  0.00    +0.164 HD
BRANCH  28  30
ATOM     30  C   UNL     1       5.098  -4.169 -13.363  1.00  0.00    +0.176 C 
BRANCH  30  31
ATOM     31  C   UNL     1       5.570  -5.571 -12.950  1.00  0.00    +0.070 C 
BRANCH  31  32
ATOM     32  C   UNL     1       4.516  -6.636 -13.149  1.00  0.00    -0.045 A 
ATOM     33  C   UNL     1       4.146  -7.040 -14.438  1.00  0.00    +0.004 A 
ATOM     34  C   UNL     1       3.870  -7.207 -12.043  1.00  0.00    +0.004 A 
ATOM     35  C   UNL     1       3.139  -7.990 -14.619  1.00  0.00    +0.000 A 
ATOM     36  C   UNL     1       2.864  -8.156 -12.227  1.00  0.00    +0.000 A 
ATOM     37  C   UNL     1       2.497  -8.545 -13.513  1.00  0.00    +0.000 A 
ENDBRANCH  31  32
ENDBRANCH  30  31
BRANCH  30  38
ATOM     38  C   UNL     1       5.919  -3.648 -14.568  1.00  0.00    +0.247 C 
ATOM     39  O   UNL     1       6.320  -4.427 -15.434  1.00  0.00    -0.272 OA
ATOM     40  N   UNL     1       6.081  -2.273 -14.571  1.00  0.00    -0.324 N 
ATOM     41  H   UNL     1       5.640  -1.765 -13.810  1.00  0.00    +0.170 HD
BRANCH  40  42
ATOM     42  C   UNL     1       6.736  -1.482 -15.533  1.00  0.00    +0.041 A 
ATOM     43  C   UNL     1       6.076  -0.675 -16.465  1.00  0.00    +0.033 A 
ATOM     44  C   UNL     1       8.138  -1.522 -15.538  1.00  0.00    +0.033 A 
ATOM     45  C   UNL     1       6.801   0.085 -17.391  1.00  0.00    +0.088 A 
ATOM     46  C   UNL     1       8.874  -0.766 -16.458  1.00  0.00    +0.088 A 
ATOM     47  C   UNL     1       8.200   0.037 -17.383  1.00  0.00    +0.269 A 
BRANCH  47  48
ATOM     48  N   UNL     1       8.963   0.834 -18.351  1.00  0.00    +0.062 N 
ATOM     49  O   UNL     1       8.342   1.666 -19.029  1.00  0.00    -0.258 OA
ATOM     50  O   UNL     1      10.182   0.627 -18.435  1.00  0.00    -0.258 OA
ENDBRANCH  47  48
ENDBRANCH  40  42
ENDBRANCH  30  38
ENDBRANCH  28  30
ENDBRANCH  23  26
ENDBRANCH  19  21
ENDBRANCH   1  19
TORSDOF 16
ENDMDL
MODEL 8
REMARK VINA RESULT:    -6.134      4.013      9.434
REMARK INTER + INTRA:         -15.315
REMARK INTER:                 -13.421
REMARK INTRA:                  -1.895
REMARK UNBOUND:                -3.623
REMARK SMILES C[C@H](NC(=O)CCC(=O)O)C(=O)N[C@@H](C)C(=O)N1CCC[C@@H]1C(=O)N[C@H](Cc1ccccc1)C(=O)Nc1ccc([N+](=O)[O-])cc1
REMARK SMILES IDX 14 1 15 2 13 3 11 4 12 5 2 7 1 8 3 9 4 10 5 11 6 13 7 14
REMARK SMILES IDX 8 15 9 16 10 17 16 19 17 20 18 21 19 22 22 23 20 24 21 25
REMARK SMILES IDX 23 26 24 27 25 28 26 30 27 31 28 32 29 33 33 34 30 35 32 36
REMARK SMILES IDX 31 37 34 38 35 39 36 40 37 42 38 43 45 44 39 45 44 46 40 47
REMARK SMILES IDX 41 48 42 49 43 50
REMARK H PARENT 13 6 3 12 10 18 25 29 36 41
ROOT
ATOM      1  C   UNL     1       5.624  -5.506 -16.013  1.00  0.00    +0.168 C 
ATOM      2  C   UNL     1       6.026  -5.821 -17.449  1.00  0.00    +0.041 C 
ENDROOT
BRANCH   1   3
ATOM      3  N   UNL     1       4.858  -6.608 -15.441  1.00  0.00    -0.343 N 
ATOM      4  C   UNL     1       5.021  -7.052 -14.148  1.00  0.00    +0.242 C 
ATOM      5  O   UNL     1       5.844  -6.557 -13.383  1.00  0.00    -0.273 OA
ATOM      6  H   UNL     1       4.054  -6.940 -15.972  1.00  0.00    +0.164 HD
BRANCH   4   7
ATOM      7  C   UNL     1       3.991  -8.119 -13.725  1.00  0.00    +0.168 C 
ATOM      8  C   UNL     1       4.112  -8.449 -12.244  1.00  0.00    +0.041 C 
BRANCH   7   9
ATOM      9  N   UNL     1       4.147  -9.321 -14.548  1.00  0.00    -0.345 N 
ATOM     10  C   UNL     1       3.250  -9.634 -15.543  1.00  0.00    +0.221 C 
ATOM     11  O   UNL     1       2.338  -8.892 -15.887  1.00  0.00    -0.275 OA
ATOM     12  H   UNL     1       4.755 -10.050 -14.191  1.00  0.00    +0.164 HD
BRANCH  10  13
ATOM     13  C   UNL     1       3.538 -10.965 -16.207  1.00  0.00    +0.111 C 
BRANCH  13  14
ATOM     14  C   UNL     1       2.298 -11.849 -16.260  1.00  0.00    +0.132 C 
BRANCH  14  15
ATOM     15  C   UNL     1       2.659 -13.292 -16.042  1.00  0.00    +0.303 C 
ATOM     16  O   UNL     1       3.562 -13.726 -15.347  1.00  0.00    -0.252 OA
BRANCH  15  17
ATOM     17  O   UNL     1       1.886 -14.124 -16.764  1.00  0.00    -0.481 OA
ATOM     18  H   UNL     1       2.121 -13.922 -17.694  1.00  0.00    +0.296 HD
ENDBRANCH  15  17
ENDBRANCH  14  15
ENDBRANCH  13  14
ENDBRANCH  10  13
ENDBRANCH   7   9
ENDBRANCH   4   7
ENDBRANCH   1   3
BRANCH   1  19
ATOM     19  C   UNL     1       4.724  -4.255 -15.970  1.00  0.00    +0.245 C 
ATOM     20  O   UNL     1       3.527  -4.334 -16.274  1.00  0.00    -0.272 OA
BRANCH  19  21
ATOM     21  N   UNL     1       5.295  -3.053 -15.625  1.00  0.00    -0.329 N 
ATOM     22  C   UNL     1       6.711  -2.725 -15.545  1.00  0.00    +0.120 C 
ATOM     23  C   UNL     1       4.464  -1.938 -15.186  1.00  0.00    +0.174 C 
ATOM     24  C   UNL     1       6.760  -1.341 -14.911  1.00  0.00    +0.024 C 
ATOM     25  C   UNL     1       5.405  -0.736 -15.266  1.00  0.00    +0.037 C 
BRANCH  23  26
ATOM     26  C   UNL     1       3.969  -2.136 -13.735  1.00  0.00    +0.243 C 
ATOM     27  O   UNL     1       4.263  -3.108 -13.042  1.00  0.00    -0.273 OA
ATOM     28  N   UNL     1       3.202  -1.088 -13.256  1.00  0.00    -0.342 N 
ATOM     29  H   UNL     1       3.316  -0.196 -13.725  1.00  0.00    +0.164 HD
BRANCH  28  30
ATOM     30  C   UNL     1       2.897  -0.999 -11.826  1.00  0.00    +0.176 C 
BRANCH  30  31
ATOM     31  C   UNL     1       1.475  -0.460 -11.611  1.00  0.00    +0.070 C 
BRANCH  31  32
ATOM     32  C   UNL     1       0.536  -0.786 -12.749  1.00  0.00    -0.045 A 
ATOM     33  C   UNL     1      -0.254  -1.943 -12.712  1.00  0.00    +0.004 A 
ATOM     34  C   UNL     1       0.472   0.047 -13.875  1.00  0.00    +0.004 A 
ATOM     35  C   UNL     1      -1.084  -2.266 -13.787  1.00  0.00    +0.000 A 
ATOM     36  C   UNL     1      -0.359  -0.278 -14.947  1.00  0.00    +0.000 A 
ATOM     37  C   UNL     1      -1.134  -1.435 -14.904  1.00  0.00    +0.000 A 
ENDBRANCH  31  32
ENDBRANCH  30  31
BRANCH  30  38
ATOM     38  C   UNL     1       3.945  -0.045 -11.202  1.00  0.00    +0.247 C 
ATOM     39  O   UNL     1       4.587  -0.386 -10.208  1.00  0.00    -0.272 OA
ATOM     40  N   UNL     1       4.092   1.141 -11.901  1.00  0.00    -0.324 N 
ATOM     41  H   UNL     1       3.525   1.247 -12.736  1.00  0.00    +0.170 HD
BRANCH  40  42
ATOM     42  C   UNL     1       4.979   2.201 -11.628  1.00  0.00    +0.041 A 
ATOM     43  C   UNL     1       6.289   2.270 -12.109  1.00  0.00    +0.033 A 
ATOM     44  C   UNL     1       4.493   3.240 -10.820  1.00  0.00    +0.033 A 
ATOM     45  C   UNL     1       7.109   3.360 -11.793  1.00  0.00    +0.088 A 
ATOM     46  C   UNL     1       5.303   4.336 -10.498  1.00  0.00    +0.088 A 
ATOM     47  C   UNL     1       6.612   4.390 -10.988  1.00  0.00    +0.269 A 
BRANCH  47  48
ATOM     48  N   UNL     1       7.467   5.536 -10.656  1.00  0.00    +0.062 N 
ATOM     49  O   UNL     1       6.913   6.621 -10.428  1.00  0.00    -0.258 OA
ATOM     50  O   UNL     1       8.693   5.352 -10.627  1.00  0.00    -0.258 OA
ENDBRANCH  47  48
ENDBRANCH  40  42
ENDBRANCH  30  38
ENDBRANCH  28  30
ENDBRANCH  23  26
ENDBRANCH  19  21
ENDBRANCH   1  19
TORSDOF 16
ENDMDL
MODEL 9
REMARK VINA RESULT:    -6.029      2.316      5.833
REMARK INTER + INTRA:         -15.115
REMARK INTER:                 -12.450
REMARK INTRA:                  -2.665
REMARK UNBOUND:                -3.623
REMARK SMILES C[C@H](NC(=O)CCC(=O)O)C(=O)N[C@@H](C)C(=O)N1CCC[C@@H]1C(=O)N[C@H](Cc1ccccc1)C(=O)Nc1ccc([N+](=O)[O-])cc1
REMARK SMILES IDX 14 1 15 2 13 3 11 4 12 5 2 7 1 8 3 9 4 10 5 11 6 13 7 14
REMARK SMILES IDX 8 15 9 16 10 17 16 19 17 20 18 21 19 22 22 23 20 24 21 25
REMARK SMILES IDX 23 26 24 27 25 28 26 30 27 31 28 32 29 33 33 34 30 35 32 36
REMARK SMILES IDX 31 37 34 38 35 39 36 40 37 42 38 43 45 44 39 45 44 46 40 47
REMARK SMILES IDX 41 48 42 49 43 50
REMARK H PARENT 13 6 3 12 10 18 25 29 36 41
ROOT
ATOM      1  C   UNL     1       3.227   0.455 -13.465  1.00  0.00    +0.168 C 
ATOM      2  C   UNL     1       3.343   1.750 -14.263  1.00  0.00    +0.041 C 
ENDROOT
BRANCH   1   3
ATOM      3  N   UNL     1       1.830   0.051 -13.343  1.00  0.00    -0.343 N 
ATOM      4  C   UNL     1       1.256  -0.926 -14.125  1.00  0.00    +0.242 C 
ATOM      5  O   UNL     1       1.880  -1.519 -15.000  1.00  0.00    -0.273 OA
ATOM      6  H   UNL     1       1.318   0.389 -12.530  1.00  0.00    +0.164 HD
BRANCH   4   7
ATOM      7  C   UNL     1      -0.184  -1.287 -13.705  1.00  0.00    +0.168 C 
ATOM      8  C   UNL     1      -0.230  -1.801 -12.273  1.00  0.00    +0.041 C 
BRANCH   7   9
ATOM      9  N   UNL     1      -0.748  -2.267 -14.636  1.00  0.00    -0.345 N 
ATOM     10  C   UNL     1      -2.005  -2.110 -15.172  1.00  0.00    +0.221 C 
ATOM     11  O   UNL     1      -2.687  -1.106 -15.008  1.00  0.00    -0.275 OA
ATOM     12  H   UNL     1      -0.320  -3.186 -14.656  1.00  0.00    +0.164 HD
BRANCH  10  13
ATOM     13  C   UNL     1      -2.436  -3.281 -16.032  1.00  0.00    +0.111 C 
BRANCH  13  14
ATOM     14  C   UNL     1      -3.945  -3.302 -16.241  1.00  0.00    +0.132 C 
BRANCH  14  15
ATOM     15  C   UNL     1      -4.285  -3.197 -17.701  1.00  0.00    +0.303 C 
ATOM     16  O   UNL     1      -3.511  -3.015 -18.624  1.00  0.00    -0.252 OA
BRANCH  15  17
ATOM     17  O   UNL     1      -5.612  -3.275 -17.920  1.00  0.00    -0.481 OA
ATOM     18  H   UNL     1      -6.011  -2.963 -17.082  1.00  0.00    +0.296 HD
ENDBRANCH  15  17
ENDBRANCH  14  15
ENDBRANCH  13  14
ENDBRANCH  10  13
ENDBRANCH   7   9
ENDBRANCH   4   7
ENDBRANCH   1   3
BRANCH   1  19
ATOM     19  C   UNL     1       3.768   0.658 -12.035  1.00  0.00    +0.245 C 
ATOM     20  O   UNL     1       3.247   1.486 -11.279  1.00  0.00    -0.272 OA
BRANCH  19  21
ATOM     21  N   UNL     1       4.863  -0.077 -11.644  1.00  0.00    -0.329 N 
ATOM     22  C   UNL     1       6.266   0.185 -11.930  1.00  0.00    +0.120 C 
ATOM     23  C   UNL     1       4.692  -1.336 -10.927  1.00  0.00    +0.174 C 
ATOM     24  C   UNL     1       7.006  -1.054 -11.444  1.00  0.00    +0.024 C 
ATOM     25  C   UNL     1       6.085  -1.623 -10.368  1.00  0.00    +0.037 C 
BRANCH  23  26
ATOM     26  C   UNL     1       4.248  -2.473 -11.875  1.00  0.00    +0.243 C 
ATOM     27  O   UNL     1       3.079  -2.831 -12.007  1.00  0.00    -0.273 OA
ATOM     28  N   UNL     1       5.281  -3.024 -12.613  1.00  0.00    -0.342 N 
ATOM     29  H   UNL     1       6.109  -2.449 -12.726  1.00  0.00    +0.164 HD
BRANCH  28  30
ATOM     30  C   UNL     1       4.982  -3.907 -13.743  1.00  0.00    +0.176 C 
BRANCH  30  31
ATOM     31  C   UNL     1       5.599  -5.295 -13.518  1.00  0.00    +0.070 C 
BRANCH  31  32
ATOM     32  C   UNL     1       4.569  -6.372 -13.266  1.00  0.00    -0.045 A 
ATOM     33  C   UNL     1       4.111  -6.629 -11.967  1.00  0.00    +0.004 A 
ATOM     34  C   UNL     1       4.088  -7.153 -14.326  1.00  0.00    +0.004 A 
ATOM     35  C   UNL     1       3.196  -7.657 -11.732  1.00  0.00    +0.000 A 
ATOM     36  C   UNL     1       3.173  -8.179 -14.088  1.00  0.00    +0.000 A 
ATOM     37  C   UNL     1       2.730  -8.432 -12.792  1.00  0.00    +0.000 A 
ENDBRANCH  31  32
ENDBRANCH  30  31
BRANCH  30  38
ATOM     38  C   UNL     1       5.581  -3.239 -15.005  1.00  0.00    +0.247 C 
ATOM     39  O   UNL     1       6.751  -3.447 -15.326  1.00  0.00    -0.272 OA
ATOM     40  N   UNL     1       4.667  -2.472 -15.707  1.00  0.00    -0.324 N 
ATOM     41  H   UNL     1       3.721  -2.446 -15.338  1.00  0.00    +0.170 HD
BRANCH  40  42
ATOM     42  C   UNL     1       4.872  -1.767 -16.909  1.00  0.00    +0.041 A 
ATOM     43  C   UNL     1       4.982  -2.372 -18.163  1.00  0.00    +0.033 A 
ATOM     44  C   UNL     1       4.971  -0.371 -16.814  1.00  0.00    +0.033 A 
ATOM     45  C   UNL     1       5.185  -1.600 -19.313  1.00  0.00    +0.088 A 
ATOM     46  C   UNL     1       5.173   0.413 -17.956  1.00  0.00    +0.088 A 
ATOM     47  C   UNL     1       5.279  -0.208 -19.205  1.00  0.00    +0.269 A 
BRANCH  47  48
ATOM     48  N   UNL     1       5.490   0.606 -20.409  1.00  0.00    +0.062 N 
ATOM     49  O   UNL     1       5.393   0.043 -21.508  1.00  0.00    -0.258 OA
ATOM     50  O   UNL     1       5.755   1.807 -20.254  1.00  0.00    -0.258 OA
ENDBRANCH  47  48
ENDBRANCH  40  42
ENDBRANCH  30  38
ENDBRANCH  28  30
ENDBRANCH  23  26
ENDBRANCH  19  21
ENDBRANCH   1  19
TORSDOF 16
ENDMDL
