MODEL 1
REMARK VINA RESULT:    -8.202      0.000      0.000
REMARK INTER + INTRA:         -18.777
REMARK INTER:                 -15.634
REMARK INTRA:                  -3.142
REMARK UNBOUND:                -3.142
REMARK SMILES C[C@H](NC(=O)CCC(=O)O)C(=O)N[C@@H](C)C(=O)N1CCC[C@@H]1C(=O)N[C@H](Cc1ccccc1)C(=O)Nc1ccc([N+](=O)[O-])cc1
REMARK SMILES IDX 14 1 15 2 13 3 11 4 12 5 2 7 1 8 3 9 4 10 5 11 6 13 7 14
REMARK SMILES IDX 8 15 9 16 10 17 16 19 17 20 18 21 19 22 22 23 20 24 21 25
REMARK SMILES IDX 23 26 24 27 25 28 26 30 27 31 28 32 29 33 33 34 30 35 32 36
REMARK SMILES IDX 31 37 34 38 35 39 36 40 37 42 38 43 45 44 39 45 44 46 40 47
REMARK SMILES IDX 41 48 42 49 43 50
REMARK H PARENT 13 6 3 12 10 18 25 29 36 41
ROOT
ATOM      1  C   UNL     1     -13.569   8.554   2.594  1.00  0.00    +0.168 C 
ATOM      2  C   UNL     1     -13.921   9.823   1.826  1.00  0.00    +0.041 C 
ENDROOT
BRANCH   1   3
ATOM      3  N   UNL     1     -12.648   8.853   3.685  1.00  0.00    -0.343 N 
ATOM      4  C   UNL     1     -13.029   8.881   5.008  1.00  0.00    +0.242 C 
ATOM      5  O   UNL     1     -14.185   8.670   5.365  1.00  0.00    -0.273 OA
ATOM      6  H   UNL     1     -11.654   8.870   3.464  1.00  0.00    +0.164 HD
BRANCH   4   7
ATOM      7  C   UNL     1     -11.851   9.064   5.987  1.00  0.00    +0.168 C 
ATOM      8  C   UNL     1     -11.857  10.455   6.606  1.00  0.00    +0.041 C 
BRANCH   7   9
ATOM      9  N   UNL     1     -10.583   8.797   5.302  1.00  0.00    -0.345 N 
ATOM     10  C   UNL     1      -9.570   8.094   5.913  1.00  0.00    +0.221 C 
ATOM     11  O   UNL     1      -9.689   7.550   7.004  1.00  0.00    -0.275 OA
ATOM     12  H   UNL     1     -10.362   9.371   4.497  1.00  0.00    +0.164 HD
BRANCH  10  13
ATOM     13  C   UNL     1      -8.312   8.013   5.072  1.00  0.00    +0.111 C 
BRANCH  13  14
ATOM     14  C   UNL     1      -8.546   7.242   3.779  1.00  0.00    +0.132 C 
BRANCH  14  15
ATOM     15  C   UNL     1      -8.912   5.812   4.066  1.00  0.00    +0.303 C 
ATOM     16  O   UNL     1      -9.949   5.246   3.767  1.00  0.00    -0.252 OA
BRANCH  15  17
ATOM     17  O   UNL     1      -7.959   5.177   4.773  1.00  0.00    -0.481 OA
ATOM     18  H   UNL     1      -7.202   5.799   4.768  1.00  0.00    +0.296 HD
ENDBRANCH  15  17
ENDBRANCH  14  15
ENDBRANCH  13  14
ENDBRANCH  10  13
ENDBRANCH   7   9
ENDBRANCH   4   7
ENDBRANCH   1   3
BRANCH   1  19
ATOM     19  C   UNL     1     -12.862   7.545   1.666  1.00  0.00    +0.245 C 
ATOM     20  O   UNL     1     -12.603   6.403   2.064  1.00  0.00    -0.272 OA
BRANCH  19  21
ATOM     21  N   UNL     1     -12.497   7.963   0.408  1.00  0.00    -0.329 N 
ATOM     22  C   UNL     1     -13.027   7.517  -0.872  1.00  0.00    +0.120 C 
ATOM     23  C   UNL     1     -11.393   8.900   0.231  1.00  0.00    +0.174 C 
ATOM     24  C   UNL     1     -12.114   8.146  -1.917  1.00  0.00    +0.024 C 
ATOM     25  C   UNL     1     -11.557   9.379  -1.211  1.00  0.00    +0.037 C 
BRANCH  23  26
ATOM     26  C   UNL     1     -10.024   8.206   0.414  1.00  0.00    +0.243 C 
ATOM     27  O   UNL     1      -9.882   6.986   0.474  1.00  0.00    -0.273 OA
ATOM     28  N   UNL     1      -8.952   9.081   0.449  1.00  0.00    -0.342 N 
ATOM     29  H   UNL     1      -9.101   9.992   0.030  1.00  0.00    +0.164 HD
BRANCH  28  30
ATOM     30  C   UNL     1      -7.585   8.565   0.338  1.00  0.00    +0.176 C 
BRANCH  30  31
ATOM     31  C   UNL     1      -6.615   9.434   1.153  1.00  0.00    +0.070 C 
BRANCH  31  32
ATOM     32  C   UNL     1      -7.210  10.759   1.572  1.00  0.00    -0.045 A 
ATOM     33  C   UNL     1      -6.956  11.920   0.831  1.00  0.00    +0.004 A 
ATOM     34  C   UNL     1      -7.993  10.847   2.732  1.00  0.00    +0.004 A 
ATOM     35  C   UNL     1      -7.467  13.150   1.248  1.00  0.00    +0.000 A 
ATOM     36  C   UNL     1      -8.503  12.078   3.146  1.00  0.00    +0.000 A 
ATOM     37  C   UNL     1      -8.238  13.228   2.406  1.00  0.00    +0.000 A 
ENDBRANCH  31  32
ENDBRANCH  30  31
BRANCH  30  38
ATOM     38  C   UNL     1      -7.215   8.596  -1.166  1.00  0.00    +0.247 C 
ATOM     39  O   UNL     1      -6.471   7.739  -1.643  1.00  0.00    -0.272 OA
ATOM     40  N   UNL     1      -7.839   9.615  -1.864  1.00  0.00    -0.324 N 
ATOM     41  H   UNL     1      -8.470  10.207  -1.333  1.00  0.00    +0.170 HD
BRANCH  40  42
ATOM     42  C   UNL     1      -7.751   9.899  -3.241  1.00  0.00    +0.041 A 
ATOM     43  C   UNL     1      -6.631  10.466  -3.854  1.00  0.00    +0.033 A 
ATOM     44  C   UNL     1      -8.871   9.585  -4.025  1.00  0.00    +0.033 A 
ATOM     45  C   UNL     1      -6.621  10.717  -5.231  1.00  0.00    +0.088 A 
ATOM     46  C   UNL     1      -8.874   9.830  -5.403  1.00  0.00    +0.088 A 
ATOM     47  C   UNL     1      -7.744  10.397  -6.002  1.00  0.00    +0.269 A 
BRANCH  47  48
ATOM     48  N   UNL     1      -7.737  10.656  -7.447  1.00  0.00    +0.062 N 
ATOM     49  O   UNL     1      -6.657  10.549  -8.045  1.00  0.00    -0.258 OA
ATOM     50  O   UNL     1      -8.810  10.970  -7.982  1.00  0.00    -0.258 OA
ENDBRANCH  47  48
ENDBRANCH  40  42
ENDBRANCH  30  38
ENDBRANCH  28  30
ENDBRANCH  23  26
ENDBRANCH  19  21
ENDBRANCH   1  19
TORSDOF 16
ENDMDL
MODEL 2
REMARK VINA RESULT:    -8.010      2.359      3.780
REMARK INTER + INTRA:         -18.411
REMARK INTER:                 -16.648
REMARK INTRA:                  -1.762
REMARK UNBOUND:                -3.142
REMARK SMILES C[C@H](NC(=O)CCC(=O)O)C(=O)N[C@@H](C)C(=O)N1CCC[C@@H]1C(=O)N[C@H](Cc1ccccc1)C(=O)Nc1ccc([N+](=O)[O-])cc1
REMARK SMILES IDX 14 1 15 2 13 3 11 4 12 5 2 7 1 8 3 9 4 10 5 11 6 13 7 14
REMARK SMILES IDX 8 15 9 16 10 17 16 19 17 20 18 21 19 22 22 23 20 24 21 25
REMARK SMILES IDX 23 26 24 27 25 28 26 30 27 31 28 32 29 33 33 34 30 35 32 36
REMARK SMILES IDX 31 37 34 38 35 39 36 40 37 42 38 43 45 44 39 45 44 46 40 47
REMARK SMILES IDX 41 48 42 49 43 50
REMARK H PARENT 13 6 3 12 10 18 25 29 36 41
ROOT
ATOM      1  C   UNL     1     -11.632   9.116   3.709  1.00  0.00    +0.168 C 
ATOM      2  C   UNL     1     -11.602   9.906   2.405  1.00  0.00    +0.041 C 
ENDROOT
BRANCH   1   3
ATOM      3  N   UNL     1     -10.857   9.798   4.740  1.00  0.00    -0.343 N 
ATOM      4  C   UNL     1     -11.426  10.588   5.713  1.00  0.00    +0.242 C 
ATOM      5  O   UNL     1     -12.635  10.792   5.771  1.00  0.00    -0.273 OA
ATOM      6  H   UNL     1      -9.879   9.532   4.838  1.00  0.00    +0.164 HD
BRANCH   4   7
ATOM      7  C   UNL     1     -10.423  11.071   6.781  1.00  0.00    +0.168 C 
ATOM      8  C   UNL     1     -10.583  12.560   7.058  1.00  0.00    +0.041 C 
BRANCH   7   9
ATOM      9  N   UNL     1      -9.054  10.756   6.364  1.00  0.00    -0.345 N 
ATOM     10  C   UNL     1      -8.018  10.712   7.268  1.00  0.00    +0.221 C 
ATOM     11  O   UNL     1      -8.175  10.816   8.479  1.00  0.00    -0.275 OA
ATOM     12  H   UNL     1      -8.838  10.850   5.378  1.00  0.00    +0.164 HD
BRANCH  10  13
ATOM     13  C   UNL     1      -6.671  10.466   6.619  1.00  0.00    +0.111 C 
BRANCH  13  14
ATOM     14  C   UNL     1      -5.975   9.246   7.210  1.00  0.00    +0.132 C 
BRANCH  14  15
ATOM     15  C   UNL     1      -4.481   9.396   7.141  1.00  0.00    +0.303 C 
ATOM     16  O   UNL     1      -3.693   9.324   8.068  1.00  0.00    -0.252 OA
BRANCH  15  17
ATOM     17  O   UNL     1      -4.057   9.688   5.897  1.00  0.00    -0.481 OA
ATOM     18  H   UNL     1      -4.294  10.631   5.778  1.00  0.00    +0.296 HD
ENDBRANCH  15  17
ENDBRANCH  14  15
ENDBRANCH  13  14
ENDBRANCH  10  13
ENDBRANCH   7   9
ENDBRANCH   4   7
ENDBRANCH   1   3
BRANCH   1  19
ATOM     19  C   UNL     1     -10.997   7.725   3.507  1.00  0.00    +0.245 C 
ATOM     20  O   UNL     1     -11.506   6.912   2.725  1.00  0.00    -0.272 OA
BRANCH  19  21
ATOM     21  N   UNL     1      -9.881   7.405   4.244  1.00  0.00    -0.329 N 
ATOM     22  C   UNL     1      -9.740   7.386   5.692  1.00  0.00    +0.120 C 
ATOM     23  C   UNL     1      -8.613   7.123   3.581  1.00  0.00    +0.174 C 
ATOM     24  C   UNL     1      -8.252   7.179   5.941  1.00  0.00    +0.024 C 
ATOM     25  C   UNL     1      -7.773   6.468   4.678  1.00  0.00    +0.037 C 
BRANCH  23  26
ATOM     26  C   UNL     1      -7.932   8.418   3.083  1.00  0.00    +0.243 C 
ATOM     27  O   UNL     1      -7.110   9.052   3.742  1.00  0.00    -0.273 OA
ATOM     28  N   UNL     1      -8.286   8.777   1.793  1.00  0.00    -0.342 N 
ATOM     29  H   UNL     1      -8.651   8.037   1.205  1.00  0.00    +0.164 HD
BRANCH  28  30
ATOM     30  C   UNL     1      -7.522   9.809   1.087  1.00  0.00    +0.176 C 
BRANCH  30  31
ATOM     31  C   UNL     1      -8.269  11.151   1.126  1.00  0.00    +0.070 C 
BRANCH  31  32
ATOM     32  C   UNL     1      -7.345  12.347   1.141  1.00  0.00    -0.045 A 
ATOM     33  C   UNL     1      -7.713  13.524   1.805  1.00  0.00    +0.004 A 
ATOM     34  C   UNL     1      -6.122  12.304   0.457  1.00  0.00    +0.004 A 
ATOM     35  C   UNL     1      -6.878  14.643   1.776  1.00  0.00    +0.000 A 
ATOM     36  C   UNL     1      -5.289  13.423   0.429  1.00  0.00    +0.000 A 
ATOM     37  C   UNL     1      -5.669  14.592   1.086  1.00  0.00    +0.000 A 
ENDBRANCH  31  32
ENDBRANCH  30  31
BRANCH  30  38
ATOM     38  C   UNL     1      -7.351   9.320  -0.372  1.00  0.00    +0.247 C 
ATOM     39  O   UNL     1      -6.726   8.287  -0.615  1.00  0.00    -0.272 OA
ATOM     40  N   UNL     1      -8.001  10.117  -1.299  1.00  0.00    -0.324 N 
ATOM     41  H   UNL     1      -8.522  10.907  -0.929  1.00  0.00    +0.170 HD
BRANCH  40  42
ATOM     42  C   UNL     1      -8.078   9.935  -2.693  1.00  0.00    +0.041 A 
ATOM     43  C   UNL     1      -9.185   9.396  -3.353  1.00  0.00    +0.033 A 
ATOM     44  C   UNL     1      -6.960  10.327  -3.445  1.00  0.00    +0.033 A 
ATOM     45  C   UNL     1      -9.185   9.248  -4.745  1.00  0.00    +0.088 A 
ATOM     46  C   UNL     1      -6.948  10.186  -4.837  1.00  0.00    +0.088 A 
ATOM     47  C   UNL     1      -8.064   9.645  -5.483  1.00  0.00    +0.269 A 
BRANCH  47  48
ATOM     48  N   UNL     1      -8.060   9.494  -6.944  1.00  0.00    +0.062 N 
ATOM     49  O   UNL     1      -8.982   8.844  -7.457  1.00  0.00    -0.258 OA
ATOM     50  O   UNL     1      -7.135  10.022  -7.576  1.00  0.00    -0.258 OA
ENDBRANCH  47  48
ENDBRANCH  40  42
ENDBRANCH  30  38
ENDBRANCH  28  30
ENDBRANCH  23  26
ENDBRANCH  19  21
ENDBRANCH   1  19
TORSDOF 16
ENDMDL
MODEL 3
REMARK VINA RESULT:    -7.831      3.343      7.369
REMARK INTER + INTRA:         -18.070
REMARK INTER:                 -15.228
REMARK INTRA:                  -2.842
REMARK UNBOUND:                -3.142
REMARK SMILES C[C@H](NC(=O)CCC(=O)O)C(=O)N[C@@H](C)C(=O)N1CCC[C@@H]1C(=O)N[C@H](Cc1ccccc1)C(=O)Nc1ccc([N+](=O)[O-])cc1
REMARK SMILES IDX 14 1 15 2 13 3 11 4 12 5 2 7 1 8 3 9 4 10 5 11 6 13 7 14
REMARK SMILES IDX 8 15 9 16 10 17 16 19 17 20 18 21 19 22 22 23 20 24 21 25
REMARK SMILES IDX 23 26 24 27 25 28 26 30 27 31 28 32 29 33 33 34 30 35 32 36
REMARK SMILES IDX 31 37 34 38 35 39 36 40 37 42 38 43 45 44 39 45 44 46 40 47
REMARK SMILES IDX 41 48 42 49 43 50
REMARK H PARENT 13 6 3 12 10 18 25 29 36 41
ROOT
ATOM      1  C   UNL     1     -11.661  10.090   5.082  1.00  0.00    +0.168 C 
ATOM      2  C   UNL     1     -11.042  11.444   4.752  1.00  0.00    +0.041 C 
ENDROOT
BRANCH   1   3
ATOM      3  N   UNL     1     -11.040   9.518   6.271  1.00  0.00    -0.343 N 
ATOM      4  C   UNL     1     -11.733   8.779   7.205  1.00  0.00    +0.242 C 
ATOM      5  O   UNL     1     -12.937   8.563   7.109  1.00  0.00    -0.273 OA
ATOM      6  H   UNL     1     -10.022   9.525   6.313  1.00  0.00    +0.164 HD
BRANCH   4   7
ATOM      7  C   UNL     1     -10.832   8.149   8.286  1.00  0.00    +0.168 C 
ATOM      8  C   UNL     1      -9.888   7.116   7.688  1.00  0.00    +0.041 C 
BRANCH   7   9
ATOM      9  N   UNL     1     -11.655   7.560   9.345  1.00  0.00    -0.345 N 
ATOM     10  C   UNL     1     -11.954   8.254  10.495  1.00  0.00    +0.221 C 
ATOM     11  O   UNL     1     -11.659   9.431  10.668  1.00  0.00    -0.275 OA
ATOM     12  H   UNL     1     -11.761   6.552   9.342  1.00  0.00    +0.164 HD
BRANCH  10  13
ATOM     13  C   UNL     1     -12.734   7.432  11.501  1.00  0.00    +0.111 C 
BRANCH  13  14
ATOM     14  C   UNL     1     -11.824   6.836  12.568  1.00  0.00    +0.132 C 
BRANCH  14  15
ATOM     15  C   UNL     1     -10.905   5.805  11.973  1.00  0.00    +0.303 C 
ATOM     16  O   UNL     1      -9.693   5.753  12.082  1.00  0.00    -0.252 OA
BRANCH  15  17
ATOM     17  O   UNL     1     -11.568   4.911  11.216  1.00  0.00    -0.481 OA
ATOM     18  H   UNL     1     -11.970   5.451  10.504  1.00  0.00    +0.296 HD
ENDBRANCH  15  17
ENDBRANCH  14  15
ENDBRANCH  13  14
ENDBRANCH  10  13
ENDBRANCH   7   9
ENDBRANCH   4   7
ENDBRANCH   1   3
BRANCH   1  19
ATOM     19  C   UNL     1     -11.429   9.099   3.925  1.00  0.00    +0.245 C 
ATOM     20  O   UNL     1     -10.555   8.228   4.012  1.00  0.00    -0.272 OA
BRANCH  19  21
ATOM     21  N   UNL     1     -12.190   9.236   2.787  1.00  0.00    -0.329 N 
ATOM     22  C   UNL     1     -13.152   8.293   2.235  1.00  0.00    +0.120 C 
ATOM     23  C   UNL     1     -12.016  10.392   1.916  1.00  0.00    +0.174 C 
ATOM     24  C   UNL     1     -13.523   8.862   0.871  1.00  0.00    +0.024 C 
ATOM     25  C   UNL     1     -13.255  10.357   1.022  1.00  0.00    +0.037 C 
BRANCH  23  26
ATOM     26  C   UNL     1     -10.733  10.273   1.062  1.00  0.00    +0.243 C 
ATOM     27  O   UNL     1     -10.589  10.821  -0.029  1.00  0.00    -0.273 OA
ATOM     28  N   UNL     1      -9.727   9.535   1.661  1.00  0.00    -0.342 N 
ATOM     29  H   UNL     1      -9.777   9.443   2.670  1.00  0.00    +0.164 HD
BRANCH  28  30
ATOM     30  C   UNL     1      -8.371   9.566   1.109  1.00  0.00    +0.176 C 
BRANCH  30  31
ATOM     31  C   UNL     1      -8.133   8.353   0.198  1.00  0.00    +0.070 C 
BRANCH  31  32
ATOM     32  C   UNL     1      -8.000   8.720  -1.262  1.00  0.00    -0.045 A 
ATOM     33  C   UNL     1      -8.550   7.901  -2.256  1.00  0.00    +0.004 A 
ATOM     34  C   UNL     1      -7.291   9.869  -1.640  1.00  0.00    +0.004 A 
ATOM     35  C   UNL     1      -8.384   8.218  -3.605  1.00  0.00    +0.000 A 
ATOM     36  C   UNL     1      -7.127  10.184  -2.990  1.00  0.00    +0.000 A 
ATOM     37  C   UNL     1      -7.671   9.358  -3.971  1.00  0.00    +0.000 A 
ENDBRANCH  31  32
ENDBRANCH  30  31
BRANCH  30  38
ATOM     38  C   UNL     1      -7.396   9.546   2.313  1.00  0.00    +0.247 C 
ATOM     39  O   UNL     1      -6.181   9.460   2.131  1.00  0.00    -0.272 OA
ATOM     40  N   UNL     1      -8.030   9.686   3.535  1.00  0.00    -0.324 N 
ATOM     41  H   UNL     1      -9.039   9.802   3.511  1.00  0.00    +0.170 HD
BRANCH  40  42
ATOM     42  C   UNL     1      -7.440   9.745   4.813  1.00  0.00    +0.041 A 
ATOM     43  C   UNL     1      -6.828   8.660   5.444  1.00  0.00    +0.033 A 
ATOM     44  C   UNL     1      -7.484  10.982   5.473  1.00  0.00    +0.033 A 
ATOM     45  C   UNL     1      -6.262   8.800   6.717  1.00  0.00    +0.088 A 
ATOM     46  C   UNL     1      -6.921  11.136   6.746  1.00  0.00    +0.088 A 
ATOM     47  C   UNL     1      -6.311  10.040   7.364  1.00  0.00    +0.269 A 
BRANCH  47  48
ATOM     48  N   UNL     1      -5.717  10.192   8.698  1.00  0.00    +0.062 N 
ATOM     49  O   UNL     1      -4.737   9.485   8.975  1.00  0.00    -0.258 OA
ATOM     50  O   UNL     1      -6.231  11.016   9.468  1.00  0.00    -0.258 OA
ENDBRANCH  47  48
ENDBRANCH  40  42
ENDBRANCH  30  38
ENDBRANCH  28  30
ENDBRANCH  23  26
ENDBRANCH  19  21
ENDBRANCH   1  19
TORSDOF 16
ENDMDL
MODEL 4
REMARK VINA RESULT:    -7.797      3.357      7.727
REMARK INTER + INTRA:         -18.005
REMARK INTER:                 -14.456
REMARK INTRA:                  -3.549
REMARK UNBOUND:                -3.142
REMARK SMILES C[C@H](NC(=O)CCC(=O)O)C(=O)N[C@@H](C)C(=O)N1CCC[C@@H]1C(=O)N[C@H](Cc1ccccc1)C(=O)Nc1ccc([N+](=O)[O-])cc1
REMARK SMILES IDX 14 1 15 2 13 3 11 4 12 5 2 7 1 8 3 9 4 10 5 11 6 13 7 14
REMARK SMILES IDX 8 15 9 16 10 17 16 19 17 20 18 21 19 22 22 23 20 24 21 25
REMARK SMILES IDX 23 26 24 27 25 28 26 30 27 31 28 32 29 33 33 34 30 35 32 36
REMARK SMILES IDX 31 37 34 38 35 39 36 40 37 42 38 43 45 44 39 45 44 46 40 47
REMARK SMILES IDX 41 48 42 49 43 50
REMARK H PARENT 13 6 3 12 10 18 25 29 36 41
ROOT
ATOM      1  C   UNL     1     -15.184   9.281   0.073  1.00  0.00    +0.168 C 
ATOM      2  C   UNL     1     -15.605   7.905   0.580  1.00  0.00    +0.041 C 
ENDROOT
BRANCH   1   3
ATOM      3  N   UNL     1     -15.115   9.291  -1.384  1.00  0.00    -0.343 N 
ATOM      4  C   UNL     1     -15.645  10.299  -2.158  1.00  0.00    +0.242 C 
ATOM      5  O   UNL     1     -16.235  11.260  -1.672  1.00  0.00    -0.273 OA
ATOM      6  H   UNL     1     -14.498   8.611  -1.825  1.00  0.00    +0.164 HD
BRANCH   4   7
ATOM      7  C   UNL     1     -15.310  10.168  -3.658  1.00  0.00    +0.168 C 
ATOM      8  C   UNL     1     -16.512   9.677  -4.454  1.00  0.00    +0.041 C 
BRANCH   7   9
ATOM      9  N   UNL     1     -14.159   9.279  -3.840  1.00  0.00    -0.345 N 
ATOM     10  C   UNL     1     -13.369   9.345  -4.964  1.00  0.00    +0.221 C 
ATOM     11  O   UNL     1     -13.494  10.207  -5.826  1.00  0.00    -0.275 OA
ATOM     12  H   UNL     1     -14.125   8.443  -3.268  1.00  0.00    +0.164 HD
BRANCH  10  13
ATOM     13  C   UNL     1     -12.294   8.278  -5.000  1.00  0.00    +0.111 C 
BRANCH  13  14
ATOM     14  C   UNL     1     -12.736   7.008  -4.285  1.00  0.00    +0.132 C 
BRANCH  14  15
ATOM     15  C   UNL     1     -11.610   6.015  -4.211  1.00  0.00    +0.303 C 
ATOM     16  O   UNL     1     -10.443   6.247  -3.948  1.00  0.00    -0.252 OA
BRANCH  15  17
ATOM     17  O   UNL     1     -12.010   4.769  -4.531  1.00  0.00    -0.481 OA
ATOM     18  H   UNL     1     -12.886   4.681  -4.100  1.00  0.00    +0.296 HD
ENDBRANCH  15  17
ENDBRANCH  14  15
ENDBRANCH  13  14
ENDBRANCH  10  13
ENDBRANCH   7   9
ENDBRANCH   4   7
ENDBRANCH   1   3
BRANCH   1  19
ATOM     19  C   UNL     1     -13.779   9.638   0.598  1.00  0.00    +0.245 C 
ATOM     20  O   UNL     1     -13.529  10.785   0.986  1.00  0.00    -0.272 OA
BRANCH  19  21
ATOM     21  N   UNL     1     -12.811   8.661   0.586  1.00  0.00    -0.329 N 
ATOM     22  C   UNL     1     -12.019   8.172   1.705  1.00  0.00    +0.120 C 
ATOM     23  C   UNL     1     -12.398   8.044  -0.669  1.00  0.00    +0.174 C 
ATOM     24  C   UNL     1     -10.970   7.263   1.077  1.00  0.00    +0.024 C 
ATOM     25  C   UNL     1     -11.625   6.804  -0.223  1.00  0.00    +0.037 C 
BRANCH  23  26
ATOM     26  C   UNL     1     -11.484   8.982  -1.489  1.00  0.00    +0.243 C 
ATOM     27  O   UNL     1     -11.838  10.083  -1.908  1.00  0.00    -0.273 OA
ATOM     28  N   UNL     1     -10.199   8.499  -1.666  1.00  0.00    -0.342 N 
ATOM     29  H   UNL     1      -9.886   7.800  -1.001  1.00  0.00    +0.164 HD
BRANCH  28  30
ATOM     30  C   UNL     1      -9.148   9.385  -2.173  1.00  0.00    +0.176 C 
BRANCH  30  31
ATOM     31  C   UNL     1      -8.176   8.607  -3.073  1.00  0.00    +0.070 C 
BRANCH  31  32
ATOM     32  C   UNL     1      -7.845   9.330  -4.358  1.00  0.00    -0.045 A 
ATOM     33  C   UNL     1      -6.681  10.104  -4.460  1.00  0.00    +0.004 A 
ATOM     34  C   UNL     1      -8.719   9.265  -5.452  1.00  0.00    +0.004 A 
ATOM     35  C   UNL     1      -6.403  10.809  -5.632  1.00  0.00    +0.000 A 
ATOM     36  C   UNL     1      -8.437   9.971  -6.623  1.00  0.00    +0.000 A 
ATOM     37  C   UNL     1      -7.282  10.744  -6.711  1.00  0.00    +0.000 A 
ENDBRANCH  31  32
ENDBRANCH  30  31
BRANCH  30  38
ATOM     38  C   UNL     1      -8.411   9.959  -0.938  1.00  0.00    +0.247 C 
ATOM     39  O   UNL     1      -7.180   9.958  -0.890  1.00  0.00    -0.272 OA
ATOM     40  N   UNL     1      -9.264  10.488   0.014  1.00  0.00    -0.324 N 
ATOM     41  H   UNL     1     -10.256  10.460  -0.202  1.00  0.00    +0.170 HD
BRANCH  40  42
ATOM     42  C   UNL     1      -8.923  11.116   1.228  1.00  0.00    +0.041 A 
ATOM     43  C   UNL     1      -8.929  12.500   1.422  1.00  0.00    +0.033 A 
ATOM     44  C   UNL     1      -8.556  10.279   2.293  1.00  0.00    +0.033 A 
ATOM     45  C   UNL     1      -8.577  13.048   2.662  1.00  0.00    +0.088 A 
ATOM     46  C   UNL     1      -8.204  10.815   3.536  1.00  0.00    +0.088 A 
ATOM     47  C   UNL     1      -8.215  12.202   3.716  1.00  0.00    +0.269 A 
BRANCH  47  48
ATOM     48  N   UNL     1      -7.848  12.772   5.017  1.00  0.00    +0.062 N 
ATOM     49  O   UNL     1      -7.340  12.014   5.855  1.00  0.00    -0.258 OA
ATOM     50  O   UNL     1      -8.070  13.978   5.203  1.00  0.00    -0.258 OA
ENDBRANCH  47  48
ENDBRANCH  40  42
ENDBRANCH  30  38
ENDBRANCH  28  30
ENDBRANCH  23  26
ENDBRANCH  19  21
ENDBRANCH   1  19
TORSDOF 16
ENDMDL
MODEL 5
REMARK VINA RESULT:    -7.755      2.962      9.897
REMARK INTER + INTRA:         -17.923
REMARK INTER:                 -15.770
REMARK INTRA:                  -2.153
REMARK UNBOUND:                -3.142
REMARK SMILES C[C@H](NC(=O)CCC(=O)O)C(=O)N[C@@H](C)C(=O)N1CCC[C@@H]1C(=O)N[C@H](Cc1ccccc1)C(=O)Nc1ccc([N+](=O)[O-])cc1
REMARK SMILES IDX 14 1 15 2 13 3 11 4 12 5 2 7 1 8 3 9 4 10 5 11 6 13 7 14
REMARK SMILES IDX 8 15 9 16 10 17 16 19 17 20 18 21 19 22 22 23 20 24 21 25
REMARK SMILES IDX 23 26 24 27 25 28 26 30 27 31 28 32 29 33 33 34 30 35 32 36
REMARK SMILES IDX 31 37 34 38 35 39 36 40 37 42 38 43 45 44 39 45 44 46 40 47
REMARK SMILES IDX 41 48 42 49 43 50
REMARK H PARENT 13 6 3 12 10 18 25 29 36 41
ROOT
ATOM      1  C   UNL     1      -9.005   8.274   1.837  1.00  0.00    +0.168 C 
ATOM      2  C   UNL     1      -8.997   7.107   2.819  1.00  0.00    +0.041 C 
ENDROOT
BRANCH   1   3
ATOM      3  N   UNL     1      -9.086   7.788   0.464  1.00  0.00    -0.343 N 
ATOM      4  C   UNL     1      -9.748   8.462  -0.537  1.00  0.00    +0.242 C 
ATOM      5  O   UNL     1     -10.337   9.521  -0.339  1.00  0.00    -0.273 OA
ATOM      6  H   UNL     1      -8.481   7.009   0.210  1.00  0.00    +0.164 HD
BRANCH   4   7
ATOM      7  C   UNL     1      -9.561   7.834  -1.933  1.00  0.00    +0.168 C 
ATOM      8  C   UNL     1      -8.904   6.463  -1.840  1.00  0.00    +0.041 C 
BRANCH   7   9
ATOM      9  N   UNL     1      -8.785   8.734  -2.790  1.00  0.00    -0.345 N 
ATOM     10  C   UNL     1      -7.519   9.145  -2.441  1.00  0.00    +0.221 C 
ATOM     11  O   UNL     1      -6.913   8.711  -1.469  1.00  0.00    -0.275 OA
ATOM     12  H   UNL     1      -9.294   9.262  -3.488  1.00  0.00    +0.164 HD
BRANCH  10  13
ATOM     13  C   UNL     1      -6.930  10.148  -3.412  1.00  0.00    +0.111 C 
BRANCH  13  14
ATOM     14  C   UNL     1      -7.311   9.828  -4.852  1.00  0.00    +0.132 C 
BRANCH  14  15
ATOM     15  C   UNL     1      -6.315  10.417  -5.813  1.00  0.00    +0.303 C 
ATOM     16  O   UNL     1      -5.403  11.180  -5.549  1.00  0.00    -0.252 OA
BRANCH  15  17
ATOM     17  O   UNL     1      -6.559  10.049  -7.086  1.00  0.00    -0.481 OA
ATOM     18  H   UNL     1      -7.025   9.191  -7.001  1.00  0.00    +0.296 HD
ENDBRANCH  15  17
ENDBRANCH  14  15
ENDBRANCH  13  14
ENDBRANCH  10  13
ENDBRANCH   7   9
ENDBRANCH   4   7
ENDBRANCH   1   3
BRANCH   1  19
ATOM     19  C   UNL     1      -7.698   9.083   1.958  1.00  0.00    +0.245 C 
ATOM     20  O   UNL     1      -6.634   8.516   2.234  1.00  0.00    -0.272 OA
BRANCH  19  21
ATOM     21  N   UNL     1      -7.758  10.446   1.787  1.00  0.00    -0.329 N 
ATOM     22  C   UNL     1      -6.842  11.296   1.041  1.00  0.00    +0.120 C 
ATOM     23  C   UNL     1      -8.778  11.233   2.472  1.00  0.00    +0.174 C 
ATOM     24  C   UNL     1      -7.267  12.721   1.375  1.00  0.00    +0.024 C 
ATOM     25  C   UNL     1      -8.740  12.578   1.747  1.00  0.00    +0.037 C 
BRANCH  23  26
ATOM     26  C   UNL     1      -8.442  11.419   3.969  1.00  0.00    +0.243 C 
ATOM     27  O   UNL     1      -7.641  12.253   4.388  1.00  0.00    -0.273 OA
ATOM     28  N   UNL     1      -9.168  10.597   4.814  1.00  0.00    -0.342 N 
ATOM     29  H   UNL     1     -10.037  10.228   4.444  1.00  0.00    +0.164 HD
BRANCH  28  30
ATOM     30  C   UNL     1      -9.166  10.848   6.257  1.00  0.00    +0.176 C 
BRANCH  30  31
ATOM     31  C   UNL     1      -8.757   9.580   7.022  1.00  0.00    +0.070 C 
BRANCH  31  32
ATOM     32  C   UNL     1      -7.278   9.518   7.326  1.00  0.00    -0.045 A 
ATOM     33  C   UNL     1      -6.434   8.678   6.588  1.00  0.00    +0.004 A 
ATOM     34  C   UNL     1      -6.739  10.273   8.377  1.00  0.00    +0.004 A 
ATOM     35  C   UNL     1      -5.077   8.587   6.902  1.00  0.00    +0.000 A 
ATOM     36  C   UNL     1      -5.382  10.180   8.689  1.00  0.00    +0.000 A 
ATOM     37  C   UNL     1      -4.553   9.336   7.953  1.00  0.00    +0.000 A 
ENDBRANCH  31  32
ENDBRANCH  30  31
BRANCH  30  38
ATOM     38  C   UNL     1     -10.603  11.279   6.639  1.00  0.00    +0.247 C 
ATOM     39  O   UNL     1     -10.966  12.446   6.487  1.00  0.00    -0.272 OA
ATOM     40  N   UNL     1     -11.390  10.232   7.089  1.00  0.00    -0.324 N 
ATOM     41  H   UNL     1     -10.955   9.314   7.103  1.00  0.00    +0.170 HD
BRANCH  40  42
ATOM     42  C   UNL     1     -12.742  10.273   7.478  1.00  0.00    +0.041 A 
ATOM     43  C   UNL     1     -13.174  10.463   8.793  1.00  0.00    +0.033 A 
ATOM     44  C   UNL     1     -13.698  10.108   6.464  1.00  0.00    +0.033 A 
ATOM     45  C   UNL     1     -14.540  10.492   9.099  1.00  0.00    +0.088 A 
ATOM     46  C   UNL     1     -15.066  10.137   6.757  1.00  0.00    +0.088 A 
ATOM     47  C   UNL     1     -15.482  10.329   8.078  1.00  0.00    +0.269 A 
BRANCH  47  48
ATOM     48  N   UNL     1     -16.916  10.362   8.394  1.00  0.00    +0.062 N 
ATOM     49  O   UNL     1     -17.277  11.057   9.355  1.00  0.00    -0.258 OA
ATOM     50  O   UNL     1     -17.678   9.690   7.685  1.00  0.00    -0.258 OA
ENDBRANCH  47  48
ENDBRANCH  40  42
ENDBRANCH  30  38
ENDBRANCH  28  30
ENDBRANCH  23  26
ENDBRANCH  19  21
ENDBRANCH   1  19
TORSDOF 16
ENDMDL
MODEL 6
REMARK VINA RESULT:    -7.679      2.564      4.008
REMARK INTER + INTRA:         -17.780
REMARK INTER:                 -16.057
REMARK INTRA:                  -1.723
REMARK UNBOUND:                -3.142
REMARK SMILES C[C@H](NC(=O)CCC(=O)O)C(=O)N[C@@H](C)C(=O)N1CCC[C@@H]1C(=O)N[C@H](Cc1ccccc1)C(=O)Nc1ccc([N+](=O)[O-])cc1
REMARK SMILES IDX 14 1 15 2 13 3 11 4 12 5 2 7 1 8 3 9 4 10 5 11 6 13 7 14
REMARK SMILES IDX 8 15 9 16 10 17 16 19 17 20 18 21 19 22 22 23 20 24 21 25
REMARK SMILES IDX 23 26 24 27 25 28 26 30 27 31 28 32 29 33 33 34 30 35 32 36
REMARK SMILES IDX 31 37 34 38 35 39 36 40 37 42 38 43 45 44 39 45 44 46 40 47
REMARK SMILES IDX 41 48 42 49 43 50
REMARK H PARENT 13 6 3 12 10 18 25 29 36 41
ROOT
ATOM      1  C   UNL     1     -12.583   8.910   4.458  1.00  0.00    +0.168 C 
ATOM      2  C   UNL     1     -13.072   9.648   3.217  1.00  0.00    +0.041 C 
ENDROOT
BRANCH   1   3
ATOM      3  N   UNL     1     -13.092   9.546   5.667  1.00  0.00    -0.343 N 
ATOM      4  C   UNL     1     -14.077   8.994   6.454  1.00  0.00    +0.242 C 
ATOM      5  O   UNL     1     -14.614   7.924   6.181  1.00  0.00    -0.273 OA
ATOM      6  H   UNL     1     -12.571  10.344   6.028  1.00  0.00    +0.164 HD
BRANCH   4   7
ATOM      7  C   UNL     1     -14.335   9.773   7.760  1.00  0.00    +0.168 C 
ATOM      8  C   UNL     1     -14.481  11.265   7.496  1.00  0.00    +0.041 C 
BRANCH   7   9
ATOM      9  N   UNL     1     -13.261   9.510   8.722  1.00  0.00    -0.345 N 
ATOM     10  C   UNL     1     -13.474   8.751   9.849  1.00  0.00    +0.221 C 
ATOM     11  O   UNL     1     -14.520   8.154  10.073  1.00  0.00    -0.275 OA
ATOM     12  H   UNL     1     -12.452  10.120   8.690  1.00  0.00    +0.164 HD
BRANCH  10  13
ATOM     13  C   UNL     1     -12.263   8.683  10.759  1.00  0.00    +0.111 C 
BRANCH  13  14
ATOM     14  C   UNL     1     -12.132   7.317  11.420  1.00  0.00    +0.132 C 
BRANCH  14  15
ATOM     15  C   UNL     1     -11.488   6.329  10.488  1.00  0.00    +0.303 C 
ATOM     16  O   UNL     1     -12.051   5.585   9.703  1.00  0.00    -0.252 OA
BRANCH  15  17
ATOM     17  O   UNL     1     -10.149   6.292  10.633  1.00  0.00    -0.481 OA
ATOM     18  H   UNL     1      -9.927   5.340  10.559  1.00  0.00    +0.296 HD
ENDBRANCH  15  17
ENDBRANCH  14  15
ENDBRANCH  13  14
ENDBRANCH  10  13
ENDBRANCH   7   9
ENDBRANCH   4   7
ENDBRANCH   1   3
BRANCH   1  19
ATOM     19  C   UNL     1     -11.043   8.952   4.534  1.00  0.00    +0.245 C 
ATOM     20  O   UNL     1     -10.461   9.996   4.853  1.00  0.00    -0.272 OA
BRANCH  19  21
ATOM     21  N   UNL     1     -10.343   7.816   4.202  1.00  0.00    -0.329 N 
ATOM     22  C   UNL     1      -9.725   6.851   5.099  1.00  0.00    +0.120 C 
ATOM     23  C   UNL     1     -10.060   7.503   2.806  1.00  0.00    +0.174 C 
ATOM     24  C   UNL     1      -8.913   5.934   4.193  1.00  0.00    +0.024 C 
ATOM     25  C   UNL     1      -9.625   6.039   2.847  1.00  0.00    +0.037 C 
BRANCH  23  26
ATOM     26  C   UNL     1      -8.921   8.387   2.246  1.00  0.00    +0.243 C 
ATOM     27  O   UNL     1      -7.806   7.957   1.956  1.00  0.00    -0.273 OA
ATOM     28  N   UNL     1      -9.284   9.707   2.043  1.00  0.00    -0.342 N 
ATOM     29  H   UNL     1     -10.277   9.891   1.947  1.00  0.00    +0.164 HD
BRANCH  28  30
ATOM     30  C   UNL     1      -8.414  10.593   1.265  1.00  0.00    +0.176 C 
BRANCH  30  31
ATOM     31  C   UNL     1      -8.479  12.027   1.812  1.00  0.00    +0.070 C 
BRANCH  31  32
ATOM     32  C   UNL     1      -7.319  12.887   1.368  1.00  0.00    -0.045 A 
ATOM     33  C   UNL     1      -6.271  12.339   0.617  1.00  0.00    +0.004 A 
ATOM     34  C   UNL     1      -7.260  14.239   1.736  1.00  0.00    +0.004 A 
ATOM     35  C   UNL     1      -5.178  13.126   0.250  1.00  0.00    +0.000 A 
ATOM     36  C   UNL     1      -6.166  15.023   1.368  1.00  0.00    +0.000 A 
ATOM     37  C   UNL     1      -5.126  14.466   0.628  1.00  0.00    +0.000 A 
ENDBRANCH  31  32
ENDBRANCH  30  31
BRANCH  30  38
ATOM     38  C   UNL     1      -8.915  10.542  -0.199  1.00  0.00    +0.247 C 
ATOM     39  O   UNL     1     -10.035  10.962  -0.490  1.00  0.00    -0.272 OA
ATOM     40  N   UNL     1      -7.974  10.046  -1.085  1.00  0.00    -0.324 N 
ATOM     41  H   UNL     1      -7.073   9.792  -0.692  1.00  0.00    +0.170 HD
BRANCH  40  42
ATOM     42  C   UNL     1      -8.093   9.903  -2.481  1.00  0.00    +0.041 A 
ATOM     43  C   UNL     1      -9.219   9.380  -3.122  1.00  0.00    +0.033 A 
ATOM     44  C   UNL     1      -6.999  10.317  -3.255  1.00  0.00    +0.033 A 
ATOM     45  C   UNL     1      -9.261   9.271  -4.517  1.00  0.00    +0.088 A 
ATOM     46  C   UNL     1      -7.028  10.214  -4.650  1.00  0.00    +0.088 A 
ATOM     47  C   UNL     1      -8.163   9.690  -5.277  1.00  0.00    +0.269 A 
BRANCH  47  48
ATOM     48  N   UNL     1      -8.203   9.580  -6.741  1.00  0.00    +0.062 N 
ATOM     49  O   UNL     1      -7.441  10.306  -7.394  1.00  0.00    -0.258 OA
ATOM     50  O   UNL     1      -8.999   8.769  -7.237  1.00  0.00    -0.258 OA
ENDBRANCH  47  48
ENDBRANCH  40  42
ENDBRANCH  30  38
ENDBRANCH  28  30
ENDBRANCH  23  26
ENDBRANCH  19  21
ENDBRANCH   1  19
TORSDOF 16
ENDMDL
MODEL 7
REMARK VINA RESULT:    -7.663      3.774      6.477
REMARK INTER + INTRA:         -17.750
REMARK INTER:                 -14.125
REMARK INTRA:                  -3.625
REMARK UNBOUND:                -3.142
REMARK SMILES C[C@H](NC(=O)CCC(=O)O)C(=O)N[C@@H](C)C(=O)N1CCC[C@@H]1C(=O)N[C@H](Cc1ccccc1)C(=O)Nc1ccc([N+](=O)[O-])cc1
REMARK SMILES IDX 14 1 15 2 13 3 11 4 12 5 2 7 1 8 3 9 4 10 5 11 6 13 7 14
REMARK SMILES IDX 8 15 9 16 10 17 16 19 17 20 18 21 19 22 22 23 20 24 21 25
REMARK SMILES IDX 23 26 24 27 25 28 26 30 27 31 28 32 29 33 33 34 30 35 32 36
REMARK SMILES IDX 31 37 34 38 35 39 36 40 37 42 38 43 45 44 39 45 44 46 40 47
REMARK SMILES IDX 41 48 42 49 43 50
REMARK H PARENT 13 6 3 12 10 18 25 29 36 41
ROOT
ATOM      1  C   UNL     1     -12.376   8.534   2.621  1.00  0.00    +0.168 C 
ATOM      2  C   UNL     1     -12.758   8.990   4.025  1.00  0.00    +0.041 C 
ENDROOT
BRANCH   1   3
ATOM      3  N   UNL     1     -10.930   8.593   2.438  1.00  0.00    -0.343 N 
ATOM      4  C   UNL     1     -10.119   7.480   2.460  1.00  0.00    +0.242 C 
ATOM      5  O   UNL     1     -10.559   6.350   2.654  1.00  0.00    -0.273 OA
ATOM      6  H   UNL     1     -10.538   9.475   2.111  1.00  0.00    +0.164 HD
BRANCH   4   7
ATOM      7  C   UNL     1      -8.652   7.776   2.087  1.00  0.00    +0.168 C 
ATOM      8  C   UNL     1      -7.768   7.842   3.325  1.00  0.00    +0.041 C 
BRANCH   7   9
ATOM      9  N   UNL     1      -8.571   9.019   1.315  1.00  0.00    -0.345 N 
ATOM     10  C   UNL     1      -7.507   9.282   0.484  1.00  0.00    +0.221 C 
ATOM     11  O   UNL     1      -6.624   8.468   0.241  1.00  0.00    -0.275 OA
ATOM     12  H   UNL     1      -9.158   9.789   1.615  1.00  0.00    +0.164 HD
BRANCH  10  13
ATOM     13  C   UNL     1      -7.568  10.659  -0.145  1.00  0.00    +0.111 C 
BRANCH  13  14
ATOM     14  C   UNL     1      -8.350  11.639   0.720  1.00  0.00    +0.132 C 
BRANCH  14  15
ATOM     15  C   UNL     1      -7.468  12.244   1.776  1.00  0.00    +0.303 C 
ATOM     16  O   UNL     1      -6.628  13.114   1.621  1.00  0.00    -0.252 OA
BRANCH  15  17
ATOM     17  O   UNL     1      -7.654  11.674   2.982  1.00  0.00    -0.481 OA
ATOM     18  H   UNL     1      -6.959  12.074   3.546  1.00  0.00    +0.296 HD
ENDBRANCH  15  17
ENDBRANCH  14  15
ENDBRANCH  13  14
ENDBRANCH  10  13
ENDBRANCH   7   9
ENDBRANCH   4   7
ENDBRANCH   1   3
BRANCH   1  19
ATOM     19  C   UNL     1     -13.007   9.464   1.565  1.00  0.00    +0.245 C 
ATOM     20  O   UNL     1     -12.987  10.691   1.720  1.00  0.00    -0.272 OA
BRANCH  19  21
ATOM     21  N   UNL     1     -13.620   8.891   0.476  1.00  0.00    -0.329 N 
ATOM     22  C   UNL     1     -14.472   7.711   0.446  1.00  0.00    +0.120 C 
ATOM     23  C   UNL     1     -13.376   9.406  -0.867  1.00  0.00    +0.174 C 
ATOM     24  C   UNL     1     -14.684   7.415  -1.033  1.00  0.00    +0.024 C 
ATOM     25  C   UNL     1     -14.489   8.773  -1.702  1.00  0.00    +0.037 C 
BRANCH  23  26
ATOM     26  C   UNL     1     -11.992   8.972  -1.399  1.00  0.00    +0.243 C 
ATOM     27  O   UNL     1     -11.075   8.585  -0.675  1.00  0.00    -0.273 OA
ATOM     28  N   UNL     1     -11.886   9.002  -2.779  1.00  0.00    -0.342 N 
ATOM     29  H   UNL     1     -12.757   8.964  -3.297  1.00  0.00    +0.164 HD
BRANCH  28  30
ATOM     30  C   UNL     1     -10.746   8.360  -3.438  1.00  0.00    +0.176 C 
BRANCH  30  31
ATOM     31  C   UNL     1     -10.411   9.081  -4.753  1.00  0.00    +0.070 C 
BRANCH  31  32
ATOM     32  C   UNL     1      -9.024   9.680  -4.767  1.00  0.00    -0.045 A 
ATOM     33  C   UNL     1      -8.472  10.173  -5.957  1.00  0.00    +0.004 A 
ATOM     34  C   UNL     1      -8.257   9.717  -3.594  1.00  0.00    +0.004 A 
ATOM     35  C   UNL     1      -7.173  10.682  -5.976  1.00  0.00    +0.000 A 
ATOM     36  C   UNL     1      -6.958  10.227  -3.615  1.00  0.00    +0.000 A 
ATOM     37  C   UNL     1      -6.416  10.706  -4.806  1.00  0.00    +0.000 A 
ENDBRANCH  31  32
ENDBRANCH  30  31
BRANCH  30  38
ATOM     38  C   UNL     1     -11.152   6.890  -3.707  1.00  0.00    +0.247 C 
ATOM     39  O   UNL     1     -10.371   5.971  -3.460  1.00  0.00    -0.272 OA
ATOM     40  N   UNL     1     -12.447   6.756  -4.179  1.00  0.00    -0.324 N 
ATOM     41  H   UNL     1     -12.983   7.612  -4.278  1.00  0.00    +0.170 HD
BRANCH  40  42
ATOM     42  C   UNL     1     -13.136   5.566  -4.485  1.00  0.00    +0.041 A 
ATOM     43  C   UNL     1     -14.065   4.958  -3.636  1.00  0.00    +0.033 A 
ATOM     44  C   UNL     1     -12.855   4.973  -5.725  1.00  0.00    +0.033 A 
ATOM     45  C   UNL     1     -14.710   3.774  -4.015  1.00  0.00    +0.088 A 
ATOM     46  C   UNL     1     -13.493   3.791  -6.115  1.00  0.00    +0.088 A 
ATOM     47  C   UNL     1     -14.421   3.194  -5.255  1.00  0.00    +0.269 A 
BRANCH  47  48
ATOM     48  N   UNL     1     -15.097   1.955  -5.657  1.00  0.00    +0.062 N 
ATOM     49  O   UNL     1     -14.403   1.055  -6.151  1.00  0.00    -0.258 OA
ATOM     50  O   UNL     1     -16.322   1.882  -5.481  1.00  0.00    -0.258 OA
ENDBRANCH  47  48
ENDBRANCH  40  42
ENDBRANCH  30  38
ENDBRANCH  28  30
ENDBRANCH  23  26
ENDBRANCH  19  21
ENDBRANCH   1  19
TORSDOF 16
ENDMDL
MODEL 8
REMARK VINA RESULT:    -7.582      2.064      5.096
REMARK INTER + INTRA:         -17.594
REMARK INTER:                 -15.091
REMARK INTRA:                  -2.502
REMARK UNBOUND:                -3.142
REMARK SMILES C[C@H](NC(=O)CCC(=O)O)C(=O)N[C@@H](C)C(=O)N1CCC[C@@H]1C(=O)N[C@H](Cc1ccccc1)C(=O)Nc1ccc([N+](=O)[O-])cc1
REMARK SMILES IDX 14 1 15 2 13 3 11 4 12 5 2 7 1 8 3 9 4 10 5 11 6 13 7 14
REMARK SMILES IDX 8 15 9 16 10 17 16 19 17 20 18 21 19 22 22 23 20 24 21 25
REMARK SMILES IDX 23 26 24 27 25 28 26 30 27 31 28 32 29 33 33 34 30 35 32 36
REMARK SMILES IDX 31 37 34 38 35 39 36 40 37 42 38 43 45 44 39 45 44 46 40 47
REMARK SMILES IDX 41 48 42 49 43 50
REMARK H PARENT 13 6 3 12 10 18 25 29 36 41
ROOT
ATOM      1  C   UNL     1     -11.907   9.373   4.273  1.00  0.00    +0.168 C 
ATOM      2  C   UNL     1     -12.919   8.742   5.224  1.00  0.00    +0.041 C 
ENDROOT
BRANCH   1   3
ATOM      3  N   UNL     1     -11.903   8.676   2.991  1.00  0.00    -0.343 N 
ATOM      4  C   UNL     1     -12.681   9.058   1.922  1.00  0.00    +0.242 C 
ATOM      5  O   UNL     1     -13.453  10.012   1.977  1.00  0.00    -0.273 OA
ATOM      6  H   UNL     1     -11.167   7.989   2.838  1.00  0.00    +0.164 HD
BRANCH   4   7
ATOM      7  C   UNL     1     -12.388   8.267   0.630  1.00  0.00    +0.168 C 
ATOM      8  C   UNL     1     -10.922   8.376   0.235  1.00  0.00    +0.041 C 
BRANCH   7   9
ATOM      9  N   UNL     1     -13.262   8.730  -0.451  1.00  0.00    -0.345 N 
ATOM     10  C   UNL     1     -14.003   7.848  -1.204  1.00  0.00    +0.221 C 
ATOM     11  O   UNL     1     -14.077   6.650  -0.961  1.00  0.00    -0.275 OA
ATOM     12  H   UNL     1     -13.097   9.662  -0.813  1.00  0.00    +0.164 HD
BRANCH  10  13
ATOM     13  C   UNL     1     -14.762   8.520  -2.331  1.00  0.00    +0.111 C 
BRANCH  13  14
ATOM     14  C   UNL     1     -13.901   8.670  -3.579  1.00  0.00    +0.132 C 
BRANCH  14  15
ATOM     15  C   UNL     1     -13.395  10.079  -3.715  1.00  0.00    +0.303 C 
ATOM     16  O   UNL     1     -13.803  10.935  -4.480  1.00  0.00    -0.252 OA
BRANCH  15  17
ATOM     17  O   UNL     1     -12.349  10.324  -2.902  1.00  0.00    -0.481 OA
ATOM     18  H   UNL     1     -11.566  10.216  -3.482  1.00  0.00    +0.296 HD
ENDBRANCH  15  17
ENDBRANCH  14  15
ENDBRANCH  13  14
ENDBRANCH  10  13
ENDBRANCH   7   9
ENDBRANCH   4   7
ENDBRANCH   1   3
BRANCH   1  19
ATOM     19  C   UNL     1     -10.484   9.262   4.856  1.00  0.00    +0.245 C 
ATOM     20  O   UNL     1      -9.935  10.248   5.361  1.00  0.00    -0.272 OA
BRANCH  19  21
ATOM     21  N   UNL     1      -9.834   8.053   4.762  1.00  0.00    -0.329 N 
ATOM     22  C   UNL     1      -9.462   7.151   5.841  1.00  0.00    +0.120 C 
ATOM     23  C   UNL     1      -9.341   7.576   3.475  1.00  0.00    +0.174 C 
ATOM     24  C   UNL     1      -8.585   6.092   5.186  1.00  0.00    +0.024 C 
ATOM     25  C   UNL     1      -9.044   6.099   3.730  1.00  0.00    +0.037 C 
BRANCH  23  26
ATOM     26  C   UNL     1      -8.055   8.318   3.048  1.00  0.00    +0.243 C 
ATOM     27  O   UNL     1      -6.949   8.101   3.541  1.00  0.00    -0.273 OA
ATOM     28  N   UNL     1      -8.243   9.218   2.014  1.00  0.00    -0.342 N 
ATOM     29  H   UNL     1      -9.060   9.070   1.432  1.00  0.00    +0.164 HD
BRANCH  28  30
ATOM     30  C   UNL     1      -7.084   9.786   1.319  1.00  0.00    +0.176 C 
BRANCH  30  31
ATOM     31  C   UNL     1      -7.138  11.321   1.349  1.00  0.00    +0.070 C 
BRANCH  31  32
ATOM     32  C   UNL     1      -8.359  11.860   2.058  1.00  0.00    -0.045 A 
ATOM     33  C   UNL     1      -9.645  11.576   1.580  1.00  0.00    +0.004 A 
ATOM     34  C   UNL     1      -8.217  12.685   3.183  1.00  0.00    +0.004 A 
ATOM     35  C   UNL     1     -10.768  12.116   2.209  1.00  0.00    +0.000 A 
ATOM     36  C   UNL     1      -9.341  13.222   3.810  1.00  0.00    +0.000 A 
ATOM     37  C   UNL     1     -10.615  12.940   3.322  1.00  0.00    +0.000 A 
ENDBRANCH  31  32
ENDBRANCH  30  31
BRANCH  30  38
ATOM     38  C   UNL     1      -7.136   9.264  -0.138  1.00  0.00    +0.247 C 
ATOM     39  O   UNL     1      -7.038   8.060  -0.374  1.00  0.00    -0.272 OA
ATOM     40  N   UNL     1      -7.349  10.263  -1.072  1.00  0.00    -0.324 N 
ATOM     41  H   UNL     1      -7.465  11.204  -0.709  1.00  0.00    +0.170 HD
BRANCH  40  42
ATOM     42  C   UNL     1      -7.485  10.127  -2.467  1.00  0.00    +0.041 A 
ATOM     43  C   UNL     1      -6.553  10.601  -3.395  1.00  0.00    +0.033 A 
ATOM     44  C   UNL     1      -8.636   9.473  -2.931  1.00  0.00    +0.033 A 
ATOM     45  C   UNL     1      -6.760  10.425  -4.768  1.00  0.00    +0.088 A 
ATOM     46  C   UNL     1      -8.854   9.290  -4.301  1.00  0.00    +0.088 A 
ATOM     47  C   UNL     1      -7.912   9.769  -5.217  1.00  0.00    +0.269 A 
BRANCH  47  48
ATOM     48  N   UNL     1      -8.131   9.580  -6.656  1.00  0.00    +0.062 N 
ATOM     49  O   UNL     1      -7.285  10.046  -7.433  1.00  0.00    -0.258 OA
ATOM     50  O   UNL     1      -9.151   8.971  -7.009  1.00  0.00    -0.258 OA
ENDBRANCH  47  48
ENDBRANCH  40  42
ENDBRANCH  30  38
ENDBRANCH  28  30
ENDBRANCH  23  26
ENDBRANCH  19  21
ENDBRANCH   1  19
TORSDOF 16
ENDMDL
MODEL 9
REMARK VINA RESULT:    -7.577      4.518      7.536
REMARK INTER + INTRA:         -17.586
REMARK INTER:                 -14.584
REMARK INTRA:                  -3.002
REMARK UNBOUND:                -3.142
REMARK SMILES C[C@H](NC(=O)CCC(=O)O)C(=O)N[C@@H](C)C(=O)N1CCC[C@@H]1C(=O)N[C@H](Cc1ccccc1)C(=O)Nc1ccc([N+](=O)[O-])cc1
REMARK SMILES IDX 14 1 15 2 13 3 11 4 12 5 2 7 1 8 3 9 4 10 5 11 6 13 7 14
REMARK SMILES IDX 8 15 9 16 10 17 16 19 17 20 18 21 19 22 22 23 20 24 21 25
REMARK SMILES IDX 23 26 24 27 25 28 26 30 27 31 28 32 29 33 33 34 30 35 32 36
REMARK SMILES IDX 31 37 34 38 35 39 36 40 37 42 38 43 45 44 39 45 44 46 40 47
REMARK SMILES IDX 41 48 42 49 43 50
REMARK H PARENT 13 6 3 12 10 18 25 29 36 41
ROOT
ATOM      1  C   UNL     1     -14.021   6.954  -3.734  1.00  0.00    +0.168 C 
ATOM      2  C   UNL     1     -15.013   7.923  -3.101  1.00  0.00    +0.041 C 
ENDROOT
BRANCH   1   3
ATOM      3  N   UNL     1     -12.654   7.308  -3.369  1.00  0.00    -0.343 N 
ATOM      4  C   UNL     1     -12.013   6.802  -2.261  1.00  0.00    +0.242 C 
ATOM      5  O   UNL     1     -12.558   6.022  -1.485  1.00  0.00    -0.273 OA
ATOM      6  H   UNL     1     -12.104   7.815  -4.061  1.00  0.00    +0.164 HD
BRANCH   4   7
ATOM      7  C   UNL     1     -10.525   7.199  -2.172  1.00  0.00    +0.168 C 
ATOM      8  C   UNL     1      -9.632   5.974  -2.025  1.00  0.00    +0.041 C 
BRANCH   7   9
ATOM      9  N   UNL     1     -10.320   8.137  -1.065  1.00  0.00    -0.345 N 
ATOM     10  C   UNL     1     -10.722   9.450  -1.150  1.00  0.00    +0.221 C 
ATOM     11  O   UNL     1     -11.369   9.897  -2.089  1.00  0.00    -0.275 OA
ATOM     12  H   UNL     1      -9.638   7.880  -0.361  1.00  0.00    +0.164 HD
BRANCH  10  13
ATOM     13  C   UNL     1     -10.331  10.272   0.062  1.00  0.00    +0.111 C 
BRANCH  13  14
ATOM     14  C   UNL     1     -11.150   9.892   1.289  1.00  0.00    +0.132 C 
BRANCH  14  15
ATOM     15  C   UNL     1     -12.274  10.867   1.505  1.00  0.00    +0.303 C 
ATOM     16  O   UNL     1     -13.383  10.833   1.000  1.00  0.00    -0.252 OA
BRANCH  15  17
ATOM     17  O   UNL     1     -11.918  11.880   2.318  1.00  0.00    -0.481 OA
ATOM     18  H   UNL     1     -12.342  12.668   1.917  1.00  0.00    +0.296 HD
ENDBRANCH  15  17
ENDBRANCH  14  15
ENDBRANCH  13  14
ENDBRANCH  10  13
ENDBRANCH   7   9
ENDBRANCH   4   7
ENDBRANCH   1   3
BRANCH   1  19
ATOM     19  C   UNL     1     -14.113   7.021  -5.272  1.00  0.00    +0.245 C 
ATOM     20  O   UNL     1     -14.831   7.866  -5.820  1.00  0.00    -0.272 OA
BRANCH  19  21
ATOM     21  N   UNL     1     -13.410   6.096  -6.008  1.00  0.00    -0.329 N 
ATOM     22  C   UNL     1     -13.241   4.677  -5.735  1.00  0.00    +0.120 C 
ATOM     23  C   UNL     1     -12.634   6.512  -7.171  1.00  0.00    +0.174 C 
ATOM     24  C   UNL     1     -12.202   4.202  -6.743  1.00  0.00    +0.024 C 
ATOM     25  C   UNL     1     -12.337   5.198  -7.892  1.00  0.00    +0.037 C 
BRANCH  23  26
ATOM     26  C   UNL     1     -11.317   7.206  -6.755  1.00  0.00    +0.243 C 
ATOM     27  O   UNL     1     -10.646   6.868  -5.781  1.00  0.00    -0.273 OA
ATOM     28  N   UNL     1     -10.920   8.217  -7.615  1.00  0.00    -0.342 N 
ATOM     29  H   UNL     1     -11.300   8.182  -8.554  1.00  0.00    +0.164 HD
BRANCH  28  30
ATOM     30  C   UNL     1      -9.569   8.773  -7.514  1.00  0.00    +0.176 C 
BRANCH  30  31
ATOM     31  C   UNL     1      -9.571  10.037  -6.641  1.00  0.00    +0.070 C 
BRANCH  31  32
ATOM     32  C   UNL     1      -8.472  10.047  -5.604  1.00  0.00    -0.045 A 
ATOM     33  C   UNL     1      -8.650   9.407  -4.370  1.00  0.00    +0.004 A 
ATOM     34  C   UNL     1      -7.273  10.731  -5.850  1.00  0.00    +0.004 A 
ATOM     35  C   UNL     1      -7.651   9.459  -3.397  1.00  0.00    +0.000 A 
ATOM     36  C   UNL     1      -6.277  10.782  -4.875  1.00  0.00    +0.000 A 
ATOM     37  C   UNL     1      -6.467  10.149  -3.649  1.00  0.00    +0.000 A 
ENDBRANCH  31  32
ENDBRANCH  30  31
BRANCH  30  38
ATOM     38  C   UNL     1      -9.112   9.105  -8.956  1.00  0.00    +0.247 C 
ATOM     39  O   UNL     1      -9.413  10.180  -9.474  1.00  0.00    -0.272 OA
ATOM     40  N   UNL     1      -8.324   8.118  -9.523  1.00  0.00    -0.324 N 
ATOM     41  H   UNL     1      -8.121   7.311  -8.941  1.00  0.00    +0.170 HD
BRANCH  40  42
ATOM     42  C   UNL     1      -7.718   8.120 -10.795  1.00  0.00    +0.041 A 
ATOM     43  C   UNL     1      -8.405   8.357 -11.989  1.00  0.00    +0.033 A 
ATOM     44  C   UNL     1      -6.340   7.866 -10.840  1.00  0.00    +0.033 A 
ATOM     45  C   UNL     1      -7.729   8.344 -13.215  1.00  0.00    +0.088 A 
ATOM     46  C   UNL     1      -5.653   7.850 -12.059  1.00  0.00    +0.088 A 
ATOM     47  C   UNL     1      -6.353   8.090 -13.245  1.00  0.00    +0.269 A 
BRANCH  47  48
ATOM     48  N   UNL     1      -5.641   8.077 -14.529  1.00  0.00    +0.062 N 
ATOM     49  O   UNL     1      -4.409   8.209 -14.504  1.00  0.00    -0.258 OA
ATOM     50  O   UNL     1      -6.313   7.939 -15.561  1.00  0.00    -0.258 OA
ENDBRANCH  47  48
ENDBRANCH  40  42
ENDBRANCH  30  38
ENDBRANCH  28  30
ENDBRANCH  23  26
ENDBRANCH  19  21
ENDBRANCH   1  19
TORSDOF 16
ENDMDL
