MODEL 1
REMARK VINA RESULT:    -6.931      0.000      0.000
REMARK INTER + INTRA:         -16.175
REMARK INTER:                 -13.211
REMARK INTRA:                  -2.964
REMARK UNBOUND:                -2.964
REMARK SMILES C[C@H](NC(=O)CCC(=O)O)C(=O)N[C@@H](C)C(=O)N1CCC[C@@H]1C(=O)N[C@H](Cc1ccccc1)C(=O)Nc1ccc([N+](=O)[O-])cc1
REMARK SMILES IDX 14 1 15 2 13 3 11 4 12 5 2 7 1 8 3 9 4 10 5 11 6 13 7 14
REMARK SMILES IDX 8 15 9 16 10 17 16 19 17 20 18 21 19 22 22 23 20 24 21 25
REMARK SMILES IDX 23 26 24 27 25 28 26 30 27 31 28 32 29 33 33 34 30 35 32 36
REMARK SMILES IDX 31 37 34 38 35 39 36 40 37 42 38 43 45 44 39 45 44 46 40 47
REMARK SMILES IDX 41 48 42 49 43 50
REMARK H PARENT 13 6 3 12 10 18 25 29 36 41
ROOT
ATOM      1  C   UNL     1       2.580  -0.455 -16.496  1.00  0.00    +0.168 C 
ATOM      2  C   UNL     1       2.270   0.960 -16.973  1.00  0.00    +0.041 C 
ENDROOT
BRANCH   1   3
ATOM      3  N   UNL     1       1.409  -1.049 -15.860  1.00  0.00    -0.343 N 
ATOM      4  C   UNL     1       0.874  -2.259 -16.242  1.00  0.00    +0.242 C 
ATOM      5  O   UNL     1       1.339  -2.921 -17.166  1.00  0.00    -0.273 OA
ATOM      6  H   UNL     1       1.090  -0.628 -14.989  1.00  0.00    +0.164 HD
BRANCH   4   7
ATOM      7  C   UNL     1      -0.260  -2.752 -15.320  1.00  0.00    +0.168 C 
ATOM      8  C   UNL     1      -1.627  -2.374 -15.875  1.00  0.00    +0.041 C 
BRANCH   7   9
ATOM      9  N   UNL     1      -0.075  -2.221 -13.967  1.00  0.00    -0.345 N 
ATOM     10  C   UNL     1      -0.998  -2.448 -12.973  1.00  0.00    +0.221 C 
ATOM     11  O   UNL     1      -1.965  -3.188 -13.106  1.00  0.00    -0.275 OA
ATOM     12  H   UNL     1       0.588  -1.462 -13.854  1.00  0.00    +0.164 HD
BRANCH  10  13
ATOM     13  C   UNL     1      -0.667  -1.732 -11.679  1.00  0.00    +0.111 C 
BRANCH  13  14
ATOM     14  C   UNL     1       0.204  -0.505 -11.920  1.00  0.00    +0.132 C 
BRANCH  14  15
ATOM     15  C   UNL     1       0.736   0.037 -10.622  1.00  0.00    +0.303 C 
ATOM     16  O   UNL     1       0.397   1.065 -10.062  1.00  0.00    -0.252 OA
BRANCH  15  17
ATOM     17  O   UNL     1       1.722  -0.730 -10.118  1.00  0.00    -0.481 OA
ATOM     18  H   UNL     1       2.474  -0.585 -10.730  1.00  0.00    +0.296 HD
ENDBRANCH  15  17
ENDBRANCH  14  15
ENDBRANCH  13  14
ENDBRANCH  10  13
ENDBRANCH   7   9
ENDBRANCH   4   7
ENDBRANCH   1   3
BRANCH   1  19
ATOM     19  C   UNL     1       3.707  -0.431 -15.444  1.00  0.00    +0.245 C 
ATOM     20  O   UNL     1       4.159  -1.487 -14.986  1.00  0.00    -0.272 OA
BRANCH  19  21
ATOM     21  N   UNL     1       4.163   0.791 -15.006  1.00  0.00    -0.329 N 
ATOM     22  C   UNL     1       5.340   1.519 -15.454  1.00  0.00    +0.120 C 
ATOM     23  C   UNL     1       3.501   1.475 -13.901  1.00  0.00    +0.174 C 
ATOM     24  C   UNL     1       5.474   2.687 -14.484  1.00  0.00    +0.024 C 
ATOM     25  C   UNL     1       4.049   2.899 -13.980  1.00  0.00    +0.037 C 
BRANCH  23  26
ATOM     26  C   UNL     1       3.861   0.835 -12.541  1.00  0.00    +0.243 C 
ATOM     27  O   UNL     1       3.298   1.120 -11.485  1.00  0.00    -0.273 OA
ATOM     28  N   UNL     1       4.842  -0.138 -12.620  1.00  0.00    -0.342 N 
ATOM     29  H   UNL     1       4.978  -0.566 -13.529  1.00  0.00    +0.164 HD
BRANCH  28  30
ATOM     30  C   UNL     1       5.090  -1.020 -11.477  1.00  0.00    +0.176 C 
BRANCH  30  31
ATOM     31  C   UNL     1       6.599  -1.226 -11.274  1.00  0.00    +0.070 C 
BRANCH  31  32
ATOM     32  C   UNL     1       7.434  -0.095 -11.828  1.00  0.00    -0.045 A 
ATOM     33  C   UNL     1       7.410   1.170 -11.226  1.00  0.00    +0.004 A 
ATOM     34  C   UNL     1       8.216  -0.288 -12.975  1.00  0.00    +0.004 A 
ATOM     35  C   UNL     1       8.145   2.225 -11.768  1.00  0.00    +0.000 A 
ATOM     36  C   UNL     1       8.951   0.768 -13.515  1.00  0.00    +0.000 A 
ATOM     37  C   UNL     1       8.913   2.024 -12.913  1.00  0.00    +0.000 A 
ENDBRANCH  31  32
ENDBRANCH  30  31
BRANCH  30  38
ATOM     38  C   UNL     1       4.392  -2.366 -11.790  1.00  0.00    +0.247 C 
ATOM     39  O   UNL     1       3.198  -2.524 -11.535  1.00  0.00    -0.272 OA
ATOM     40  N   UNL     1       5.222  -3.286 -12.408  1.00  0.00    -0.324 N 
ATOM     41  H   UNL     1       6.171  -2.980 -12.600  1.00  0.00    +0.170 HD
BRANCH  40  42
ATOM     42  C   UNL     1       4.896  -4.580 -12.856  1.00  0.00    +0.041 A 
ATOM     43  C   UNL     1       4.783  -4.937 -14.203  1.00  0.00    +0.033 A 
ATOM     44  C   UNL     1       4.675  -5.555 -11.872  1.00  0.00    +0.033 A 
ATOM     45  C   UNL     1       4.455  -6.248 -14.569  1.00  0.00    +0.088 A 
ATOM     46  C   UNL     1       4.348  -6.869 -12.225  1.00  0.00    +0.088 A 
ATOM     47  C   UNL     1       4.239  -7.211 -13.577  1.00  0.00    +0.269 A 
BRANCH  47  48
ATOM     48  N   UNL     1       3.898  -8.588 -13.956  1.00  0.00    +0.062 N 
ATOM     49  O   UNL     1       3.650  -8.810 -15.150  1.00  0.00    -0.258 OA
ATOM     50  O   UNL     1       3.876  -9.444 -13.061  1.00  0.00    -0.258 OA
ENDBRANCH  47  48
ENDBRANCH  40  42
ENDBRANCH  30  38
ENDBRANCH  28  30
ENDBRANCH  23  26
ENDBRANCH  19  21
ENDBRANCH   1  19
TORSDOF 16
ENDMDL
MODEL 2
REMARK VINA RESULT:    -6.908      3.905      8.792
REMARK INTER + INTRA:         -16.132
REMARK INTER:                 -13.903
REMARK INTRA:                  -2.229
REMARK UNBOUND:                -2.964
REMARK SMILES C[C@H](NC(=O)CCC(=O)O)C(=O)N[C@@H](C)C(=O)N1CCC[C@@H]1C(=O)N[C@H](Cc1ccccc1)C(=O)Nc1ccc([N+](=O)[O-])cc1
REMARK SMILES IDX 14 1 15 2 13 3 11 4 12 5 2 7 1 8 3 9 4 10 5 11 6 13 7 14
REMARK SMILES IDX 8 15 9 16 10 17 16 19 17 20 18 21 19 22 22 23 20 24 21 25
REMARK SMILES IDX 23 26 24 27 25 28 26 30 27 31 28 32 29 33 33 34 30 35 32 36
REMARK SMILES IDX 31 37 34 38 35 39 36 40 37 42 38 43 45 44 39 45 44 46 40 47
REMARK SMILES IDX 41 48 42 49 43 50
REMARK H PARENT 13 6 3 12 10 18 25 29 36 41
ROOT
ATOM      1  C   UNL     1       2.168  -1.598 -12.700  1.00  0.00    +0.168 C 
ATOM      2  C   UNL     1       0.709  -1.961 -12.445  1.00  0.00    +0.041 C 
ENDROOT
BRANCH   1   3
ATOM      3  N   UNL     1       2.946  -2.791 -13.014  1.00  0.00    -0.343 N 
ATOM      4  C   UNL     1       3.690  -2.927 -14.164  1.00  0.00    +0.242 C 
ATOM      5  O   UNL     1       3.737  -2.052 -15.024  1.00  0.00    -0.273 OA
ATOM      6  H   UNL     1       3.076  -3.471 -12.266  1.00  0.00    +0.164 HD
BRANCH   4   7
ATOM      7  C   UNL     1       4.549  -4.207 -14.197  1.00  0.00    +0.168 C 
ATOM      8  C   UNL     1       4.643  -4.775 -15.607  1.00  0.00    +0.041 C 
BRANCH   7   9
ATOM      9  N   UNL     1       4.009  -5.199 -13.264  1.00  0.00    -0.345 N 
ATOM     10  C   UNL     1       4.796  -6.201 -12.744  1.00  0.00    +0.221 C 
ATOM     11  O   UNL     1       6.005  -6.272 -12.926  1.00  0.00    -0.275 OA
ATOM     12  H   UNL     1       3.002  -5.302 -13.231  1.00  0.00    +0.164 HD
BRANCH  10  13
ATOM     13  C   UNL     1       4.023  -7.176 -11.878  1.00  0.00    +0.111 C 
BRANCH  13  14
ATOM     14  C   UNL     1       4.195  -8.612 -12.356  1.00  0.00    +0.132 C 
BRANCH  14  15
ATOM     15  C   UNL     1       3.534  -8.816 -13.691  1.00  0.00    +0.303 C 
ATOM     16  O   UNL     1       2.655  -8.132 -14.186  1.00  0.00    -0.252 OA
BRANCH  15  17
ATOM     17  O   UNL     1       3.986  -9.918 -14.318  1.00  0.00    -0.481 OA
ATOM     18  H   UNL     1       3.171 -10.394 -14.583  1.00  0.00    +0.296 HD
ENDBRANCH  15  17
ENDBRANCH  14  15
ENDBRANCH  13  14
ENDBRANCH  10  13
ENDBRANCH   7   9
ENDBRANCH   4   7
ENDBRANCH   1   3
BRANCH   1  19
ATOM     19  C   UNL     1       2.790  -0.965 -11.439  1.00  0.00    +0.245 C 
ATOM     20  O   UNL     1       2.101  -0.769 -10.431  1.00  0.00    -0.272 OA
BRANCH  19  21
ATOM     21  N   UNL     1       4.114  -0.594 -11.483  1.00  0.00    -0.329 N 
ATOM     22  C   UNL     1       5.175  -0.951 -10.552  1.00  0.00    +0.120 C 
ATOM     23  C   UNL     1       4.588   0.339 -12.499  1.00  0.00    +0.174 C 
ATOM     24  C   UNL     1       6.365  -0.093 -10.963  1.00  0.00    +0.024 C 
ATOM     25  C   UNL     1       6.108   0.192 -12.440  1.00  0.00    +0.037 C 
BRANCH  23  26
ATOM     26  C   UNL     1       4.175   1.792 -12.171  1.00  0.00    +0.243 C 
ATOM     27  O   UNL     1       3.501   2.104 -11.190  1.00  0.00    -0.273 OA
ATOM     28  N   UNL     1       4.682   2.732 -13.052  1.00  0.00    -0.342 N 
ATOM     29  H   UNL     1       5.500   2.455 -13.583  1.00  0.00    +0.164 HD
BRANCH  28  30
ATOM     30  C   UNL     1       4.613   4.157 -12.720  1.00  0.00    +0.176 C 
BRANCH  30  31
ATOM     31  C   UNL     1       4.533   5.004 -13.999  1.00  0.00    +0.070 C 
BRANCH  31  32
ATOM     32  C   UNL     1       3.516   6.118 -13.914  1.00  0.00    -0.045 A 
ATOM     33  C   UNL     1       3.905   7.410 -13.535  1.00  0.00    +0.004 A 
ATOM     34  C   UNL     1       2.163   5.863 -14.176  1.00  0.00    +0.004 A 
ATOM     35  C   UNL     1       2.955   8.426 -13.411  1.00  0.00    +0.000 A 
ATOM     36  C   UNL     1       1.216   6.880 -14.051  1.00  0.00    +0.000 A 
ATOM     37  C   UNL     1       1.611   8.159 -13.666  1.00  0.00    +0.000 A 
ENDBRANCH  31  32
ENDBRANCH  30  31
BRANCH  30  38
ATOM     38  C   UNL     1       5.895   4.493 -11.920  1.00  0.00    +0.247 C 
ATOM     39  O   UNL     1       5.866   4.554 -10.690  1.00  0.00    -0.272 OA
ATOM     40  N   UNL     1       7.016   4.649 -12.718  1.00  0.00    -0.324 N 
ATOM     41  H   UNL     1       6.883   4.512 -13.715  1.00  0.00    +0.170 HD
BRANCH  40  42
ATOM     42  C   UNL     1       8.336   4.920 -12.310  1.00  0.00    +0.041 A 
ATOM     43  C   UNL     1       9.225   3.949 -11.840  1.00  0.00    +0.033 A 
ATOM     44  C   UNL     1       8.763   6.254 -12.389  1.00  0.00    +0.033 A 
ATOM     45  C   UNL     1      10.525   4.298 -11.455  1.00  0.00    +0.088 A 
ATOM     46  C   UNL     1      10.060   6.615 -12.007  1.00  0.00    +0.088 A 
ATOM     47  C   UNL     1      10.938   5.632 -11.540  1.00  0.00    +0.269 A 
BRANCH  47  48
ATOM     48  N   UNL     1      12.301   6.002 -11.138  1.00  0.00    +0.062 N 
ATOM     49  O   UNL     1      12.577   7.209 -11.084  1.00  0.00    -0.258 OA
ATOM     50  O   UNL     1      13.095   5.086 -10.881  1.00  0.00    -0.258 OA
ENDBRANCH  47  48
ENDBRANCH  40  42
ENDBRANCH  30  38
ENDBRANCH  28  30
ENDBRANCH  23  26
ENDBRANCH  19  21
ENDBRANCH   1  19
TORSDOF 16
ENDMDL
MODEL 3
REMARK VINA RESULT:    -6.646      4.124      7.307
REMARK INTER + INTRA:         -15.632
REMARK INTER:                 -12.672
REMARK INTRA:                  -2.960
REMARK UNBOUND:                -2.964
REMARK SMILES C[C@H](NC(=O)CCC(=O)O)C(=O)N[C@@H](C)C(=O)N1CCC[C@@H]1C(=O)N[C@H](Cc1ccccc1)C(=O)Nc1ccc([N+](=O)[O-])cc1
REMARK SMILES IDX 14 1 15 2 13 3 11 4 12 5 2 7 1 8 3 9 4 10 5 11 6 13 7 14
REMARK SMILES IDX 8 15 9 16 10 17 16 19 17 20 18 21 19 22 22 23 20 24 21 25
REMARK SMILES IDX 23 26 24 27 25 28 26 30 27 31 28 32 29 33 33 34 30 35 32 36
REMARK SMILES IDX 31 37 34 38 35 39 36 40 37 42 38 43 45 44 39 45 44 46 40 47
REMARK SMILES IDX 41 48 42 49 43 50
REMARK H PARENT 13 6 3 12 10 18 25 29 36 41
ROOT
ATOM      1  C   UNL     1       4.235   2.236 -15.726  1.00  0.00    +0.168 C 
ATOM      2  C   UNL     1       3.689   1.401 -16.880  1.00  0.00    +0.041 C 
ENDROOT
BRANCH   1   3
ATOM      3  N   UNL     1       4.481   1.397 -14.558  1.00  0.00    -0.343 N 
ATOM      4  C   UNL     1       5.741   1.017 -14.154  1.00  0.00    +0.242 C 
ATOM      5  O   UNL     1       6.754   1.345 -14.764  1.00  0.00    -0.273 OA
ATOM      6  H   UNL     1       3.698   1.238 -13.927  1.00  0.00    +0.164 HD
BRANCH   4   7
ATOM      7  C   UNL     1       5.757   0.266 -12.807  1.00  0.00    +0.168 C 
ATOM      8  C   UNL     1       6.994  -0.612 -12.677  1.00  0.00    +0.041 C 
BRANCH   7   9
ATOM      9  N   UNL     1       4.532  -0.523 -12.656  1.00  0.00    -0.345 N 
ATOM     10  C   UNL     1       3.849  -0.572 -11.463  1.00  0.00    +0.221 C 
ATOM     11  O   UNL     1       4.141   0.114 -10.491  1.00  0.00    -0.275 OA
ATOM     12  H   UNL     1       4.357  -1.243 -13.348  1.00  0.00    +0.164 HD
BRANCH  10  13
ATOM     13  C   UNL     1       2.667  -1.520 -11.491  1.00  0.00    +0.111 C 
BRANCH  13  14
ATOM     14  C   UNL     1       1.481  -0.965 -10.712  1.00  0.00    +0.132 C 
BRANCH  14  15
ATOM     15  C   UNL     1       0.629  -0.088 -11.587  1.00  0.00    +0.303 C 
ATOM     16  O   UNL     1       0.760   0.106 -12.783  1.00  0.00    -0.252 OA
BRANCH  15  17
ATOM     17  O   UNL     1      -0.328   0.551 -10.886  1.00  0.00    -0.481 OA
ATOM     18  H   UNL     1       0.052   0.637  -9.987  1.00  0.00    +0.296 HD
ENDBRANCH  15  17
ENDBRANCH  14  15
ENDBRANCH  13  14
ENDBRANCH  10  13
ENDBRANCH   7   9
ENDBRANCH   4   7
ENDBRANCH   1   3
BRANCH   1  19
ATOM     19  C   UNL     1       3.209   3.308 -15.309  1.00  0.00    +0.245 C 
ATOM     20  O   UNL     1       1.996   3.067 -15.354  1.00  0.00    -0.272 OA
BRANCH  19  21
ATOM     21  N   UNL     1       3.677   4.543 -14.925  1.00  0.00    -0.329 N 
ATOM     22  C   UNL     1       4.585   5.421 -15.649  1.00  0.00    +0.120 C 
ATOM     23  C   UNL     1       3.349   5.083 -13.610  1.00  0.00    +0.174 C 
ATOM     24  C   UNL     1       4.924   6.535 -14.666  1.00  0.00    +0.024 C 
ATOM     25  C   UNL     1       3.722   6.561 -13.726  1.00  0.00    +0.037 C 
BRANCH  23  26
ATOM     26  C   UNL     1       4.177   4.405 -12.495  1.00  0.00    +0.243 C 
ATOM     27  O   UNL     1       3.926   3.289 -12.044  1.00  0.00    -0.273 OA
ATOM     28  N   UNL     1       5.272   5.144 -12.081  1.00  0.00    -0.342 N 
ATOM     29  H   UNL     1       5.616   5.841 -12.732  1.00  0.00    +0.164 HD
BRANCH  28  30
ATOM     30  C   UNL     1       6.299   4.521 -11.242  1.00  0.00    +0.176 C 
BRANCH  30  31
ATOM     31  C   UNL     1       6.816   5.519 -10.195  1.00  0.00    +0.070 C 
BRANCH  31  32
ATOM     32  C   UNL     1       7.443   6.751 -10.805  1.00  0.00    -0.045 A 
ATOM     33  C   UNL     1       8.805   6.770 -11.131  1.00  0.00    +0.004 A 
ATOM     34  C   UNL     1       6.675   7.905 -11.016  1.00  0.00    +0.004 A 
ATOM     35  C   UNL     1       9.391   7.926 -11.649  1.00  0.00    +0.000 A 
ATOM     36  C   UNL     1       7.263   9.059 -11.534  1.00  0.00    +0.000 A 
ATOM     37  C   UNL     1       8.621   9.070 -11.848  1.00  0.00    +0.000 A 
ENDBRANCH  31  32
ENDBRANCH  30  31
BRANCH  30  38
ATOM     38  C   UNL     1       7.442   4.078 -12.188  1.00  0.00    +0.247 C 
ATOM     39  O   UNL     1       7.385   4.323 -13.394  1.00  0.00    -0.272 OA
ATOM     40  N   UNL     1       8.493   3.463 -11.530  1.00  0.00    -0.324 N 
ATOM     41  H   UNL     1       8.411   3.386 -10.521  1.00  0.00    +0.170 HD
BRANCH  40  42
ATOM     42  C   UNL     1       9.694   2.979 -12.082  1.00  0.00    +0.041 A 
ATOM     43  C   UNL     1      10.928   3.623 -11.959  1.00  0.00    +0.033 A 
ATOM     44  C   UNL     1       9.623   1.774 -12.796  1.00  0.00    +0.033 A 
ATOM     45  C   UNL     1      12.080   3.076 -12.538  1.00  0.00    +0.088 A 
ATOM     46  C   UNL     1      10.767   1.216 -13.378  1.00  0.00    +0.088 A 
ATOM     47  C   UNL     1      11.995   1.872 -13.246  1.00  0.00    +0.269 A 
BRANCH  47  48
ATOM     48  N   UNL     1      13.201   1.294 -13.852  1.00  0.00    +0.062 N 
ATOM     49  O   UNL     1      14.244   1.308 -13.183  1.00  0.00    -0.258 OA
ATOM     50  O   UNL     1      13.105   0.829 -14.996  1.00  0.00    -0.258 OA
ENDBRANCH  47  48
ENDBRANCH  40  42
ENDBRANCH  30  38
ENDBRANCH  28  30
ENDBRANCH  23  26
ENDBRANCH  19  21
ENDBRANCH   1  19
TORSDOF 16
ENDMDL
MODEL 4
REMARK VINA RESULT:    -6.616      4.372      8.628
REMARK INTER + INTRA:         -15.575
REMARK INTER:                 -12.372
REMARK INTRA:                  -3.202
REMARK UNBOUND:                -2.964
REMARK SMILES C[C@H](NC(=O)CCC(=O)O)C(=O)N[C@@H](C)C(=O)N1CCC[C@@H]1C(=O)N[C@H](Cc1ccccc1)C(=O)Nc1ccc([N+](=O)[O-])cc1
REMARK SMILES IDX 14 1 15 2 13 3 11 4 12 5 2 7 1 8 3 9 4 10 5 11 6 13 7 14
REMARK SMILES IDX 8 15 9 16 10 17 16 19 17 20 18 21 19 22 22 23 20 24 21 25
REMARK SMILES IDX 23 26 24 27 25 28 26 30 27 31 28 32 29 33 33 34 30 35 32 36
REMARK SMILES IDX 31 37 34 38 35 39 36 40 37 42 38 43 45 44 39 45 44 46 40 47
REMARK SMILES IDX 41 48 42 49 43 50
REMARK H PARENT 13 6 3 12 10 18 25 29 36 41
ROOT
ATOM      1  C   UNL     1       9.441   4.744 -13.747  1.00  0.00    +0.168 C 
ATOM      2  C   UNL     1       9.436   5.475 -15.085  1.00  0.00    +0.041 C 
ENDROOT
BRANCH   1   3
ATOM      3  N   UNL     1      10.072   3.435 -13.879  1.00  0.00    -0.343 N 
ATOM      4  C   UNL     1      11.284   3.120 -13.307  1.00  0.00    +0.242 C 
ATOM      5  O   UNL     1      11.933   3.932 -12.653  1.00  0.00    -0.273 OA
ATOM      6  H   UNL     1       9.505   2.683 -14.265  1.00  0.00    +0.164 HD
BRANCH   4   7
ATOM      7  C   UNL     1      11.669   1.634 -13.453  1.00  0.00    +0.168 C 
ATOM      8  C   UNL     1      12.497   1.397 -14.709  1.00  0.00    +0.041 C 
BRANCH   7   9
ATOM      9  N   UNL     1      10.464   0.800 -13.451  1.00  0.00    -0.345 N 
ATOM     10  C   UNL     1       9.619   0.761 -12.366  1.00  0.00    +0.221 C 
ATOM     11  O   UNL     1       9.742   1.488 -11.388  1.00  0.00    -0.275 OA
ATOM     12  H   UNL     1      10.417   0.053 -14.134  1.00  0.00    +0.164 HD
BRANCH  10  13
ATOM     13  C   UNL     1       8.488  -0.235 -12.529  1.00  0.00    +0.111 C 
BRANCH  13  14
ATOM     14  C   UNL     1       7.416  -0.050 -11.463  1.00  0.00    +0.132 C 
BRANCH  14  15
ATOM     15  C   UNL     1       7.576  -1.061 -10.361  1.00  0.00    +0.303 C 
ATOM     16  O   UNL     1       8.601  -1.632 -10.032  1.00  0.00    -0.252 OA
BRANCH  15  17
ATOM     17  O   UNL     1       6.405  -1.343  -9.758  1.00  0.00    -0.481 OA
ATOM     18  H   UNL     1       6.414  -2.319  -9.664  1.00  0.00    +0.296 HD
ENDBRANCH  15  17
ENDBRANCH  14  15
ENDBRANCH  13  14
ENDBRANCH  10  13
ENDBRANCH   7   9
ENDBRANCH   4   7
ENDBRANCH   1   3
BRANCH   1  19
ATOM     19  C   UNL     1       7.997   4.505 -13.262  1.00  0.00    +0.245 C 
ATOM     20  O   UNL     1       7.273   3.680 -13.832  1.00  0.00    -0.272 OA
BRANCH  19  21
ATOM     21  N   UNL     1       7.529   5.260 -12.212  1.00  0.00    -0.329 N 
ATOM     22  C   UNL     1       7.237   4.822 -10.855  1.00  0.00    +0.120 C 
ATOM     23  C   UNL     1       7.171   6.660 -12.408  1.00  0.00    +0.174 C 
ATOM     24  C   UNL     1       6.551   6.012 -10.195  1.00  0.00    +0.024 C 
ATOM     25  C   UNL     1       7.073   7.209 -10.985  1.00  0.00    +0.037 C 
BRANCH  23  26
ATOM     26  C   UNL     1       5.814   6.803 -13.134  1.00  0.00    +0.243 C 
ATOM     27  O   UNL     1       5.516   7.768 -13.835  1.00  0.00    -0.273 OA
ATOM     28  N   UNL     1       4.975   5.714 -12.974  1.00  0.00    -0.342 N 
ATOM     29  H   UNL     1       5.418   4.840 -12.714  1.00  0.00    +0.164 HD
BRANCH  28  30
ATOM     30  C   UNL     1       3.785   5.579 -13.817  1.00  0.00    +0.176 C 
BRANCH  30  31
ATOM     31  C   UNL     1       2.603   6.347 -13.207  1.00  0.00    +0.070 C 
BRANCH  31  32
ATOM     32  C   UNL     1       1.998   7.359 -14.152  1.00  0.00    -0.045 A 
ATOM     33  C   UNL     1       2.089   8.730 -13.880  1.00  0.00    +0.004 A 
ATOM     34  C   UNL     1       1.305   6.934 -15.294  1.00  0.00    +0.004 A 
ATOM     35  C   UNL     1       1.487   9.660 -14.730  1.00  0.00    +0.000 A 
ATOM     36  C   UNL     1       0.705   7.866 -16.142  1.00  0.00    +0.000 A 
ATOM     37  C   UNL     1       0.794   9.227 -15.859  1.00  0.00    +0.000 A 
ENDBRANCH  31  32
ENDBRANCH  30  31
BRANCH  30  38
ATOM     38  C   UNL     1       3.468   4.065 -13.905  1.00  0.00    +0.247 C 
ATOM     39  O   UNL     1       2.624   3.649 -14.700  1.00  0.00    -0.272 OA
ATOM     40  N   UNL     1       4.249   3.290 -13.065  1.00  0.00    -0.324 N 
ATOM     41  H   UNL     1       4.941   3.783 -12.509  1.00  0.00    +0.170 HD
BRANCH  40  42
ATOM     42  C   UNL     1       4.243   1.889 -12.928  1.00  0.00    +0.041 A 
ATOM     43  C   UNL     1       4.716   1.004 -13.901  1.00  0.00    +0.033 A 
ATOM     44  C   UNL     1       3.724   1.372 -11.731  1.00  0.00    +0.033 A 
ATOM     45  C   UNL     1       4.677  -0.379 -13.688  1.00  0.00    +0.088 A 
ATOM     46  C   UNL     1       3.680  -0.008 -11.506  1.00  0.00    +0.088 A 
ATOM     47  C   UNL     1       4.158  -0.881 -12.489  1.00  0.00    +0.269 A 
BRANCH  47  48
ATOM     48  N   UNL     1       4.117  -2.330 -12.261  1.00  0.00    +0.062 N 
ATOM     49  O   UNL     1       5.198  -2.936 -12.212  1.00  0.00    -0.258 OA
ATOM     50  O   UNL     1       3.006  -2.863 -12.134  1.00  0.00    -0.258 OA
ENDBRANCH  47  48
ENDBRANCH  40  42
ENDBRANCH  30  38
ENDBRANCH  28  30
ENDBRANCH  23  26
ENDBRANCH  19  21
ENDBRANCH   1  19
TORSDOF 16
ENDMDL
MODEL 5
REMARK VINA RESULT:    -6.521      3.609      6.728
REMARK INTER + INTRA:         -15.393
REMARK INTER:                 -12.214
REMARK INTRA:                  -3.180
REMARK UNBOUND:                -2.964
REMARK SMILES C[C@H](NC(=O)CCC(=O)O)C(=O)N[C@@H](C)C(=O)N1CCC[C@@H]1C(=O)N[C@H](Cc1ccccc1)C(=O)Nc1ccc([N+](=O)[O-])cc1
REMARK SMILES IDX 14 1 15 2 13 3 11 4 12 5 2 7 1 8 3 9 4 10 5 11 6 13 7 14
REMARK SMILES IDX 8 15 9 16 10 17 16 19 17 20 18 21 19 22 22 23 20 24 21 25
REMARK SMILES IDX 23 26 24 27 25 28 26 30 27 31 28 32 29 33 33 34 30 35 32 36
REMARK SMILES IDX 31 37 34 38 35 39 36 40 37 42 38 43 45 44 39 45 44 46 40 47
REMARK SMILES IDX 41 48 42 49 43 50
REMARK H PARENT 13 6 3 12 10 18 25 29 36 41
ROOT
ATOM      1  C   UNL     1       2.782   3.180 -14.964  1.00  0.00    +0.168 C 
ATOM      2  C   UNL     1       2.046   2.333 -15.997  1.00  0.00    +0.041 C 
ENDROOT
BRANCH   1   3
ATOM      3  N   UNL     1       3.130   4.482 -15.522  1.00  0.00    -0.343 N 
ATOM      4  C   UNL     1       2.751   5.675 -14.949  1.00  0.00    +0.242 C 
ATOM      5  O   UNL     1       2.071   5.728 -13.928  1.00  0.00    -0.273 OA
ATOM      6  H   UNL     1       3.826   4.497 -16.265  1.00  0.00    +0.164 HD
BRANCH   4   7
ATOM      7  C   UNL     1       3.371   6.912 -15.631  1.00  0.00    +0.168 C 
ATOM      8  C   UNL     1       3.248   6.829 -17.147  1.00  0.00    +0.041 C 
BRANCH   7   9
ATOM      9  N   UNL     1       4.770   7.063 -15.222  1.00  0.00    -0.345 N 
ATOM     10  C   UNL     1       5.133   7.903 -14.195  1.00  0.00    +0.221 C 
ATOM     11  O   UNL     1       4.324   8.488 -13.484  1.00  0.00    -0.275 OA
ATOM     12  H   UNL     1       5.479   6.762 -15.881  1.00  0.00    +0.164 HD
BRANCH  10  13
ATOM     13  C   UNL     1       6.633   7.988 -13.997  1.00  0.00    +0.111 C 
BRANCH  13  14
ATOM     14  C   UNL     1       6.999   8.943 -12.869  1.00  0.00    +0.132 C 
BRANCH  14  15
ATOM     15  C   UNL     1       7.186   8.199 -11.576  1.00  0.00    +0.303 C 
ATOM     16  O   UNL     1       8.205   7.662 -11.178  1.00  0.00    -0.252 OA
BRANCH  15  17
ATOM     17  O   UNL     1       6.044   8.122 -10.865  1.00  0.00    -0.481 OA
ATOM     18  H   UNL     1       5.536   7.409 -11.306  1.00  0.00    +0.296 HD
ENDBRANCH  15  17
ENDBRANCH  14  15
ENDBRANCH  13  14
ENDBRANCH  10  13
ENDBRANCH   7   9
ENDBRANCH   4   7
ENDBRANCH   1   3
BRANCH   1  19
ATOM     19  C   UNL     1       4.099   2.494 -14.549  1.00  0.00    +0.245 C 
ATOM     20  O   UNL     1       4.273   1.289 -14.767  1.00  0.00    -0.272 OA
BRANCH  19  21
ATOM     21  N   UNL     1       5.050   3.248 -13.902  1.00  0.00    -0.329 N 
ATOM     22  C   UNL     1       6.416   3.522 -14.325  1.00  0.00    +0.120 C 
ATOM     23  C   UNL     1       4.778   3.809 -12.583  1.00  0.00    +0.174 C 
ATOM     24  C   UNL     1       7.066   4.214 -13.134  1.00  0.00    +0.024 C 
ATOM     25  C   UNL     1       5.887   4.844 -12.398  1.00  0.00    +0.037 C 
BRANCH  23  26
ATOM     26  C   UNL     1       4.859   2.730 -11.480  1.00  0.00    +0.243 C 
ATOM     27  O   UNL     1       4.469   2.906 -10.327  1.00  0.00    -0.273 OA
ATOM     28  N   UNL     1       5.363   1.517 -11.917  1.00  0.00    -0.342 N 
ATOM     29  H   UNL     1       5.306   1.340 -12.914  1.00  0.00    +0.164 HD
BRANCH  28  30
ATOM     30  C   UNL     1       5.242   0.328 -11.069  1.00  0.00    +0.176 C 
BRANCH  30  31
ATOM     31  C   UNL     1       6.586  -0.410 -10.983  1.00  0.00    +0.070 C 
BRANCH  31  32
ATOM     32  C   UNL     1       7.628   0.138 -11.930  1.00  0.00    -0.045 A 
ATOM     33  C   UNL     1       8.587   1.056 -11.482  1.00  0.00    +0.004 A 
ATOM     34  C   UNL     1       7.625  -0.238 -13.281  1.00  0.00    +0.004 A 
ATOM     35  C   UNL     1       9.518   1.597 -12.370  1.00  0.00    +0.000 A 
ATOM     36  C   UNL     1       8.557   0.303 -14.167  1.00  0.00    +0.000 A 
ATOM     37  C   UNL     1       9.500   1.222 -13.712  1.00  0.00    +0.000 A 
ENDBRANCH  31  32
ENDBRANCH  30  31
BRANCH  30  38
ATOM     38  C   UNL     1       4.162  -0.575 -11.715  1.00  0.00    +0.247 C 
ATOM     39  O   UNL     1       4.488  -1.549 -12.395  1.00  0.00    -0.272 OA
ATOM     40  N   UNL     1       2.868  -0.196 -11.399  1.00  0.00    -0.324 N 
ATOM     41  H   UNL     1       2.770   0.601 -10.779  1.00  0.00    +0.170 HD
BRANCH  40  42
ATOM     42  C   UNL     1       1.667  -0.819 -11.787  1.00  0.00    +0.041 A 
ATOM     43  C   UNL     1       1.362  -1.184 -13.102  1.00  0.00    +0.033 A 
ATOM     44  C   UNL     1       0.732  -1.080 -10.774  1.00  0.00    +0.033 A 
ATOM     45  C   UNL     1       0.143  -1.802 -13.407  1.00  0.00    +0.088 A 
ATOM     46  C   UNL     1      -0.489  -1.698 -11.066  1.00  0.00    +0.088 A 
ATOM     47  C   UNL     1      -0.779  -2.057 -12.386  1.00  0.00    +0.269 A 
BRANCH  47  48
ATOM     48  N   UNL     1      -2.057  -2.708 -12.701  1.00  0.00    +0.062 N 
ATOM     49  O   UNL     1      -2.719  -3.162 -11.758  1.00  0.00    -0.258 OA
ATOM     50  O   UNL     1      -2.396  -2.766 -13.892  1.00  0.00    -0.258 OA
ENDBRANCH  47  48
ENDBRANCH  40  42
ENDBRANCH  30  38
ENDBRANCH  28  30
ENDBRANCH  23  26
ENDBRANCH  19  21
ENDBRANCH   1  19
TORSDOF 16
ENDMDL
MODEL 6
REMARK VINA RESULT:    -6.499      4.018      9.276
REMARK INTER + INTRA:         -15.351
REMARK INTER:                 -12.359
REMARK INTRA:                  -2.992
REMARK UNBOUND:                -2.964
REMARK SMILES C[C@H](NC(=O)CCC(=O)O)C(=O)N[C@@H](C)C(=O)N1CCC[C@@H]1C(=O)N[C@H](Cc1ccccc1)C(=O)Nc1ccc([N+](=O)[O-])cc1
REMARK SMILES IDX 14 1 15 2 13 3 11 4 12 5 2 7 1 8 3 9 4 10 5 11 6 13 7 14
REMARK SMILES IDX 8 15 9 16 10 17 16 19 17 20 18 21 19 22 22 23 20 24 21 25
REMARK SMILES IDX 23 26 24 27 25 28 26 30 27 31 28 32 29 33 33 34 30 35 32 36
REMARK SMILES IDX 31 37 34 38 35 39 36 40 37 42 38 43 45 44 39 45 44 46 40 47
REMARK SMILES IDX 41 48 42 49 43 50
REMARK H PARENT 13 6 3 12 10 18 25 29 36 41
ROOT
ATOM      1  C   UNL     1      10.030   1.165 -13.355  1.00  0.00    +0.168 C 
ATOM      2  C   UNL     1      11.486   1.312 -13.785  1.00  0.00    +0.041 C 
ENDROOT
BRANCH   1   3
ATOM      3  N   UNL     1       9.329   0.231 -14.229  1.00  0.00    -0.343 N 
ATOM      4  C   UNL     1       8.209  -0.470 -13.842  1.00  0.00    +0.242 C 
ATOM      5  O   UNL     1       7.727  -0.371 -12.717  1.00  0.00    -0.273 OA
ATOM      6  H   UNL     1       9.584   0.237 -15.215  1.00  0.00    +0.164 HD
BRANCH   4   7
ATOM      7  C   UNL     1       7.555  -1.271 -14.986  1.00  0.00    +0.168 C 
ATOM      8  C   UNL     1       7.172  -0.365 -16.148  1.00  0.00    +0.041 C 
BRANCH   7   9
ATOM      9  N   UNL     1       6.391  -2.006 -14.484  1.00  0.00    -0.345 N 
ATOM     10  C   UNL     1       5.998  -3.200 -15.043  1.00  0.00    +0.221 C 
ATOM     11  O   UNL     1       6.641  -3.785 -15.906  1.00  0.00    -0.275 OA
ATOM     12  H   UNL     1       5.728  -1.490 -13.917  1.00  0.00    +0.164 HD
BRANCH  10  13
ATOM     13  C   UNL     1       4.718  -3.745 -14.443  1.00  0.00    +0.111 C 
BRANCH  13  14
ATOM     14  C   UNL     1       4.942  -5.089 -13.762  1.00  0.00    +0.132 C 
BRANCH  14  15
ATOM     15  C   UNL     1       4.688  -4.990 -12.283  1.00  0.00    +0.303 C 
ATOM     16  O   UNL     1       5.352  -4.380 -11.464  1.00  0.00    -0.252 OA
BRANCH  15  17
ATOM     17  O   UNL     1       3.623  -5.721 -11.901  1.00  0.00    -0.481 OA
ATOM     18  H   UNL     1       3.286  -6.107 -12.736  1.00  0.00    +0.296 HD
ENDBRANCH  15  17
ENDBRANCH  14  15
ENDBRANCH  13  14
ENDBRANCH  10  13
ENDBRANCH   7   9
ENDBRANCH   4   7
ENDBRANCH   1   3
BRANCH   1  19
ATOM     19  C   UNL     1       9.302   2.519 -13.457  1.00  0.00    +0.245 C 
ATOM     20  O   UNL     1       8.888   2.927 -14.549  1.00  0.00    -0.272 OA
BRANCH  19  21
ATOM     21  N   UNL     1       9.162   3.272 -12.314  1.00  0.00    -0.329 N 
ATOM     22  C   UNL     1       9.928   3.177 -11.081  1.00  0.00    +0.120 C 
ATOM     23  C   UNL     1       8.085   4.248 -12.199  1.00  0.00    +0.174 C 
ATOM     24  C   UNL     1       9.206   4.088 -10.096  1.00  0.00    +0.024 C 
ATOM     25  C   UNL     1       8.497   5.096 -10.996  1.00  0.00    +0.037 C 
BRANCH  23  26
ATOM     26  C   UNL     1       6.724   3.564 -11.933  1.00  0.00    +0.243 C 
ATOM     27  O   UNL     1       6.175   3.546 -10.834  1.00  0.00    -0.273 OA
ATOM     28  N   UNL     1       6.142   3.017 -13.064  1.00  0.00    -0.342 N 
ATOM     29  H   UNL     1       6.454   3.387 -13.955  1.00  0.00    +0.164 HD
BRANCH  28  30
ATOM     30  C   UNL     1       4.742   2.586 -13.029  1.00  0.00    +0.176 C 
BRANCH  30  31
ATOM     31  C   UNL     1       4.564   1.272 -13.804  1.00  0.00    +0.070 C 
BRANCH  31  32
ATOM     32  C   UNL     1       3.634   0.298 -13.119  1.00  0.00    -0.045 A 
ATOM     33  C   UNL     1       4.106  -0.547 -12.106  1.00  0.00    +0.004 A 
ATOM     34  C   UNL     1       2.293   0.201 -13.517  1.00  0.00    +0.004 A 
ATOM     35  C   UNL     1       3.256  -1.479 -11.510  1.00  0.00    +0.000 A 
ATOM     36  C   UNL     1       1.445  -0.731 -12.919  1.00  0.00    +0.000 A 
ATOM     37  C   UNL     1       1.927  -1.572 -11.918  1.00  0.00    +0.000 A 
ENDBRANCH  31  32
ENDBRANCH  30  31
BRANCH  30  38
ATOM     38  C   UNL     1       3.908   3.720 -13.675  1.00  0.00    +0.247 C 
ATOM     39  O   UNL     1       3.162   3.483 -14.625  1.00  0.00    -0.272 OA
ATOM     40  N   UNL     1       4.063   4.943 -13.044  1.00  0.00    -0.324 N 
ATOM     41  H   UNL     1       4.676   4.960 -12.236  1.00  0.00    +0.170 HD
BRANCH  40  42
ATOM     42  C   UNL     1       3.425   6.161 -13.352  1.00  0.00    +0.041 A 
ATOM     43  C   UNL     1       2.083   6.434 -13.077  1.00  0.00    +0.033 A 
ATOM     44  C   UNL     1       4.208   7.145 -13.974  1.00  0.00    +0.033 A 
ATOM     45  C   UNL     1       1.523   7.672 -13.413  1.00  0.00    +0.088 A 
ATOM     46  C   UNL     1       3.660   8.387 -14.315  1.00  0.00    +0.088 A 
ATOM     47  C   UNL     1       2.315   8.646 -14.032  1.00  0.00    +0.269 A 
BRANCH  47  48
ATOM     48  N   UNL     1       1.732   9.946 -14.384  1.00  0.00    +0.062 N 
ATOM     49  O   UNL     1       1.097  10.023 -15.446  1.00  0.00    -0.258 OA
ATOM     50  O   UNL     1       1.911  10.890 -13.602  1.00  0.00    -0.258 OA
ENDBRANCH  47  48
ENDBRANCH  40  42
ENDBRANCH  30  38
ENDBRANCH  28  30
ENDBRANCH  23  26
ENDBRANCH  19  21
ENDBRANCH   1  19
TORSDOF 16
ENDMDL
MODEL 7
REMARK VINA RESULT:    -6.431      2.759      8.913
REMARK INTER + INTRA:         -15.223
REMARK INTER:                 -11.885
REMARK INTRA:                  -3.337
REMARK UNBOUND:                -2.964
REMARK SMILES C[C@H](NC(=O)CCC(=O)O)C(=O)N[C@@H](C)C(=O)N1CCC[C@@H]1C(=O)N[C@H](Cc1ccccc1)C(=O)Nc1ccc([N+](=O)[O-])cc1
REMARK SMILES IDX 14 1 15 2 13 3 11 4 12 5 2 7 1 8 3 9 4 10 5 11 6 13 7 14
REMARK SMILES IDX 8 15 9 16 10 17 16 19 17 20 18 21 19 22 22 23 20 24 21 25
REMARK SMILES IDX 23 26 24 27 25 28 26 30 27 31 28 32 29 33 33 34 30 35 32 36
REMARK SMILES IDX 31 37 34 38 35 39 36 40 37 42 38 43 45 44 39 45 44 46 40 47
REMARK SMILES IDX 41 48 42 49 43 50
REMARK H PARENT 13 6 3 12 10 18 25 29 36 41
ROOT
ATOM      1  C   UNL     1       6.618  -0.754 -11.777  1.00  0.00    +0.168 C 
ATOM      2  C   UNL     1       6.026  -1.064 -10.406  1.00  0.00    +0.041 C 
ENDROOT
BRANCH   1   3
ATOM      3  N   UNL     1       7.104   0.620 -11.827  1.00  0.00    -0.343 N 
ATOM      4  C   UNL     1       8.380   0.984 -11.462  1.00  0.00    +0.242 C 
ATOM      5  O   UNL     1       9.203   0.172 -11.048  1.00  0.00    -0.273 OA
ATOM      6  H   UNL     1       6.524   1.300 -12.316  1.00  0.00    +0.164 HD
BRANCH   4   7
ATOM      7  C   UNL     1       8.708   2.464 -11.751  1.00  0.00    +0.168 C 
ATOM      8  C   UNL     1       9.634   3.043 -10.691  1.00  0.00    +0.041 C 
BRANCH   7   9
ATOM      9  N   UNL     1       7.470   3.242 -11.852  1.00  0.00    -0.345 N 
ATOM     10  C   UNL     1       6.848   3.452 -13.061  1.00  0.00    +0.221 C 
ATOM     11  O   UNL     1       7.208   2.922 -14.105  1.00  0.00    -0.275 OA
ATOM     12  H   UNL     1       7.240   3.848 -11.073  1.00  0.00    +0.164 HD
BRANCH  10  13
ATOM     13  C   UNL     1       5.640   4.361 -12.959  1.00  0.00    +0.111 C 
BRANCH  13  14
ATOM     14  C   UNL     1       4.353   3.569 -12.767  1.00  0.00    +0.132 C 
BRANCH  14  15
ATOM     15  C   UNL     1       4.140   3.237 -11.316  1.00  0.00    +0.303 C 
ATOM     16  O   UNL     1       4.565   2.266 -10.715  1.00  0.00    -0.252 OA
BRANCH  15  17
ATOM     17  O   UNL     1       3.344   4.133 -10.702  1.00  0.00    -0.481 OA
ATOM     18  H   UNL     1       2.863   4.569 -11.437  1.00  0.00    +0.296 HD
ENDBRANCH  15  17
ENDBRANCH  14  15
ENDBRANCH  13  14
ENDBRANCH  10  13
ENDBRANCH   7   9
ENDBRANCH   4   7
ENDBRANCH   1   3
BRANCH   1  19
ATOM     19  C   UNL     1       5.541  -0.897 -12.870  1.00  0.00    +0.245 C 
ATOM     20  O   UNL     1       4.803   0.055 -13.151  1.00  0.00    -0.272 OA
BRANCH  19  21
ATOM     21  N   UNL     1       5.400  -2.117 -13.491  1.00  0.00    -0.329 N 
ATOM     22  C   UNL     1       6.025  -2.570 -14.724  1.00  0.00    +0.120 C 
ATOM     23  C   UNL     1       4.465  -3.108 -12.971  1.00  0.00    +0.174 C 
ATOM     24  C   UNL     1       5.347  -3.897 -15.045  1.00  0.00    +0.024 C 
ATOM     25  C   UNL     1       4.876  -4.397 -13.682  1.00  0.00    +0.037 C 
BRANCH  23  26
ATOM     26  C   UNL     1       3.003  -2.746 -13.316  1.00  0.00    +0.243 C 
ATOM     27  O   UNL     1       2.167  -2.414 -12.477  1.00  0.00    -0.273 OA
ATOM     28  N   UNL     1       2.724  -2.773 -14.672  1.00  0.00    -0.342 N 
ATOM     29  H   UNL     1       3.518  -2.685 -15.296  1.00  0.00    +0.164 HD
BRANCH  28  30
ATOM     30  C   UNL     1       1.477  -2.190 -15.173  1.00  0.00    +0.176 C 
BRANCH  30  31
ATOM     31  C   UNL     1       0.727  -3.200 -16.054  1.00  0.00    +0.070 C 
BRANCH  31  32
ATOM     32  C   UNL     1      -0.775  -3.113 -15.915  1.00  0.00    -0.045 A 
ATOM     33  C   UNL     1      -1.609  -3.381 -17.009  1.00  0.00    +0.004 A 
ATOM     34  C   UNL     1      -1.352  -2.725 -14.698  1.00  0.00    +0.004 A 
ATOM     35  C   UNL     1      -2.994  -3.253 -16.890  1.00  0.00    +0.000 A 
ATOM     36  C   UNL     1      -2.736  -2.598 -14.581  1.00  0.00    +0.000 A 
ATOM     37  C   UNL     1      -3.556  -2.859 -15.677  1.00  0.00    +0.000 A 
ENDBRANCH  31  32
ENDBRANCH  30  31
BRANCH  30  38
ATOM     38  C   UNL     1       1.865  -0.933 -15.990  1.00  0.00    +0.247 C 
ATOM     39  O   UNL     1       1.566  -0.846 -17.181  1.00  0.00    -0.272 OA
ATOM     40  N   UNL     1       2.501   0.038 -15.235  1.00  0.00    -0.324 N 
ATOM     41  H   UNL     1       2.625  -0.166 -14.248  1.00  0.00    +0.170 HD
BRANCH  40  42
ATOM     42  C   UNL     1       2.948   1.305 -15.656  1.00  0.00    +0.041 A 
ATOM     43  C   UNL     1       4.238   1.563 -16.129  1.00  0.00    +0.033 A 
ATOM     44  C   UNL     1       2.024   2.358 -15.587  1.00  0.00    +0.033 A 
ATOM     45  C   UNL     1       4.606   2.852 -16.532  1.00  0.00    +0.088 A 
ATOM     46  C   UNL     1       2.380   3.651 -15.987  1.00  0.00    +0.088 A 
ATOM     47  C   UNL     1       3.674   3.893 -16.459  1.00  0.00    +0.269 A 
BRANCH  47  48
ATOM     48  N   UNL     1       4.055   5.246 -16.882  1.00  0.00    +0.062 N 
ATOM     49  O   UNL     1       4.373   6.057 -16.000  1.00  0.00    -0.258 OA
ATOM     50  O   UNL     1       4.034   5.499 -18.096  1.00  0.00    -0.258 OA
ENDBRANCH  47  48
ENDBRANCH  40  42
ENDBRANCH  30  38
ENDBRANCH  28  30
ENDBRANCH  23  26
ENDBRANCH  19  21
ENDBRANCH   1  19
TORSDOF 16
ENDMDL
MODEL 8
REMARK VINA RESULT:    -6.397      5.502      9.440
REMARK INTER + INTRA:         -15.157
REMARK INTER:                 -12.470
REMARK INTRA:                  -2.687
REMARK UNBOUND:                -2.964
REMARK SMILES C[C@H](NC(=O)CCC(=O)O)C(=O)N[C@@H](C)C(=O)N1CCC[C@@H]1C(=O)N[C@H](Cc1ccccc1)C(=O)Nc1ccc([N+](=O)[O-])cc1
REMARK SMILES IDX 14 1 15 2 13 3 11 4 12 5 2 7 1 8 3 9 4 10 5 11 6 13 7 14
REMARK SMILES IDX 8 15 9 16 10 17 16 19 17 20 18 21 19 22 22 23 20 24 21 25
REMARK SMILES IDX 23 26 24 27 25 28 26 30 27 31 28 32 29 33 33 34 30 35 32 36
REMARK SMILES IDX 31 37 34 38 35 39 36 40 37 42 38 43 45 44 39 45 44 46 40 47
REMARK SMILES IDX 41 48 42 49 43 50
REMARK H PARENT 13 6 3 12 10 18 25 29 36 41
ROOT
ATOM      1  C   UNL     1       4.621   2.814 -13.389  1.00  0.00    +0.168 C 
ATOM      2  C   UNL     1       3.759   2.992 -14.635  1.00  0.00    +0.041 C 
ENDROOT
BRANCH   1   3
ATOM      3  N   UNL     1       4.204   1.633 -12.641  1.00  0.00    -0.343 N 
ATOM      4  C   UNL     1       5.057   0.906 -11.842  1.00  0.00    +0.242 C 
ATOM      5  O   UNL     1       6.244   1.193 -11.715  1.00  0.00    -0.273 OA
ATOM      6  H   UNL     1       3.204   1.452 -12.579  1.00  0.00    +0.164 HD
BRANCH   4   7
ATOM      7  C   UNL     1       4.352  -0.201 -11.032  1.00  0.00    +0.168 C 
ATOM      8  C   UNL     1       5.340  -1.262 -10.567  1.00  0.00    +0.041 C 
BRANCH   7   9
ATOM      9  N   UNL     1       3.274  -0.796 -11.826  1.00  0.00    -0.345 N 
ATOM     10  C   UNL     1       2.027  -1.023 -11.292  1.00  0.00    +0.221 C 
ATOM     11  O   UNL     1       1.694  -0.650 -10.173  1.00  0.00    -0.275 OA
ATOM     12  H   UNL     1       3.540  -1.288 -12.671  1.00  0.00    +0.164 HD
BRANCH  10  13
ATOM     13  C   UNL     1       1.090  -1.733 -12.248  1.00  0.00    +0.111 C 
BRANCH  13  14
ATOM     14  C   UNL     1      -0.046  -0.826 -12.702  1.00  0.00    +0.132 C 
BRANCH  14  15
ATOM     15  C   UNL     1       0.386   0.038 -13.854  1.00  0.00    +0.303 C 
ATOM     16  O   UNL     1       1.442   0.635 -13.968  1.00  0.00    -0.252 OA
BRANCH  15  17
ATOM     17  O   UNL     1      -0.574   0.149 -14.793  1.00  0.00    -0.481 OA
ATOM     18  H   UNL     1      -1.307   0.607 -14.332  1.00  0.00    +0.296 HD
ENDBRANCH  15  17
ENDBRANCH  14  15
ENDBRANCH  13  14
ENDBRANCH  10  13
ENDBRANCH   7   9
ENDBRANCH   4   7
ENDBRANCH   1   3
BRANCH   1  19
ATOM     19  C   UNL     1       4.461   4.027 -12.451  1.00  0.00    +0.245 C 
ATOM     20  O   UNL     1       3.374   4.611 -12.360  1.00  0.00    -0.272 OA
BRANCH  19  21
ATOM     21  N   UNL     1       5.565   4.461 -11.754  1.00  0.00    -0.329 N 
ATOM     22  C   UNL     1       5.693   4.668 -10.319  1.00  0.00    +0.120 C 
ATOM     23  C   UNL     1       6.773   4.870 -12.461  1.00  0.00    +0.174 C 
ATOM     24  C   UNL     1       7.041   5.353 -10.138  1.00  0.00    +0.024 C 
ATOM     25  C   UNL     1       7.836   4.910 -11.364  1.00  0.00    +0.037 C 
BRANCH  23  26
ATOM     26  C   UNL     1       6.610   6.268 -13.102  1.00  0.00    +0.243 C 
ATOM     27  O   UNL     1       7.407   6.744 -13.908  1.00  0.00    -0.273 OA
ATOM     28  N   UNL     1       5.448   6.923 -12.731  1.00  0.00    -0.342 N 
ATOM     29  H   UNL     1       4.694   6.339 -12.384  1.00  0.00    +0.164 HD
BRANCH  28  30
ATOM     30  C   UNL     1       5.019   8.119 -13.460  1.00  0.00    +0.176 C 
BRANCH  30  31
ATOM     31  C   UNL     1       5.109   9.359 -12.558  1.00  0.00    +0.070 C 
BRANCH  31  32
ATOM     32  C   UNL     1       6.490   9.972 -12.524  1.00  0.00    -0.045 A 
ATOM     33  C   UNL     1       7.199  10.198 -13.710  1.00  0.00    +0.004 A 
ATOM     34  C   UNL     1       7.093  10.287 -11.298  1.00  0.00    +0.004 A 
ATOM     35  C   UNL     1       8.493  10.719 -13.672  1.00  0.00    +0.000 A 
ATOM     36  C   UNL     1       8.387  10.809 -11.262  1.00  0.00    +0.000 A 
ATOM     37  C   UNL     1       9.087  11.022 -12.448  1.00  0.00    +0.000 A 
ENDBRANCH  31  32
ENDBRANCH  30  31
BRANCH  30  38
ATOM     38  C   UNL     1       3.557   7.871 -13.906  1.00  0.00    +0.247 C 
ATOM     39  O   UNL     1       2.652   7.809 -13.074  1.00  0.00    -0.272 OA
ATOM     40  N   UNL     1       3.408   7.792 -15.280  1.00  0.00    -0.324 N 
ATOM     41  H   UNL     1       4.249   7.919 -15.834  1.00  0.00    +0.170 HD
BRANCH  40  42
ATOM     42  C   UNL     1       2.218   7.612 -16.012  1.00  0.00    +0.041 A 
ATOM     43  C   UNL     1       1.394   8.658 -16.435  1.00  0.00    +0.033 A 
ATOM     44  C   UNL     1       1.858   6.293 -16.322  1.00  0.00    +0.033 A 
ATOM     45  C   UNL     1       0.225   8.398 -17.161  1.00  0.00    +0.088 A 
ATOM     46  C   UNL     1       0.694   6.019 -17.048  1.00  0.00    +0.088 A 
ATOM     47  C   UNL     1      -0.121   7.076 -17.465  1.00  0.00    +0.269 A 
BRANCH  47  48
ATOM     48  N   UNL     1      -1.344   6.799 -18.228  1.00  0.00    +0.062 N 
ATOM     49  O   UNL     1      -1.322   5.850 -19.025  1.00  0.00    -0.258 OA
ATOM     50  O   UNL     1      -2.325   7.531 -18.033  1.00  0.00    -0.258 OA
ENDBRANCH  47  48
ENDBRANCH  40  42
ENDBRANCH  30  38
ENDBRANCH  28  30
ENDBRANCH  23  26
ENDBRANCH  19  21
ENDBRANCH   1  19
TORSDOF 16
ENDMDL
MODEL 9
REMARK VINA RESULT:    -6.314      5.229     10.491
REMARK INTER + INTRA:         -14.999
REMARK INTER:                 -11.768
REMARK INTRA:                  -3.231
REMARK UNBOUND:                -2.964
REMARK SMILES C[C@H](NC(=O)CCC(=O)O)C(=O)N[C@@H](C)C(=O)N1CCC[C@@H]1C(=O)N[C@H](Cc1ccccc1)C(=O)Nc1ccc([N+](=O)[O-])cc1
REMARK SMILES IDX 14 1 15 2 13 3 11 4 12 5 2 7 1 8 3 9 4 10 5 11 6 13 7 14
REMARK SMILES IDX 8 15 9 16 10 17 16 19 17 20 18 21 19 22 22 23 20 24 21 25
REMARK SMILES IDX 23 26 24 27 25 28 26 30 27 31 28 32 29 33 33 34 30 35 32 36
REMARK SMILES IDX 31 37 34 38 35 39 36 40 37 42 38 43 45 44 39 45 44 46 40 47
REMARK SMILES IDX 41 48 42 49 43 50
REMARK H PARENT 13 6 3 12 10 18 25 29 36 41
ROOT
ATOM      1  C   UNL     1       6.209  -0.936 -11.389  1.00  0.00    +0.168 C 
ATOM      2  C   UNL     1       6.131  -1.768 -10.114  1.00  0.00    +0.041 C 
ENDROOT
BRANCH   1   3
ATOM      3  N   UNL     1       7.397  -0.090 -11.377  1.00  0.00    -0.343 N 
ATOM      4  C   UNL     1       8.259   0.017 -12.446  1.00  0.00    +0.242 C 
ATOM      5  O   UNL     1       8.095  -0.611 -13.489  1.00  0.00    -0.273 OA
ATOM      6  H   UNL     1       7.488   0.573 -10.610  1.00  0.00    +0.164 HD
BRANCH   4   7
ATOM      7  C   UNL     1       9.350   1.090 -12.255  1.00  0.00    +0.168 C 
ATOM      8  C   UNL     1       8.785   2.347 -11.609  1.00  0.00    +0.041 C 
BRANCH   7   9
ATOM      9  N   UNL     1       9.984   1.397 -13.540  1.00  0.00    -0.345 N 
ATOM     10  C   UNL     1      11.353   1.443 -13.675  1.00  0.00    +0.221 C 
ATOM     11  O   UNL     1      12.129   1.127 -12.782  1.00  0.00    -0.275 OA
ATOM     12  H   UNL     1       9.409   1.844 -14.245  1.00  0.00    +0.164 HD
BRANCH  10  13
ATOM     13  C   UNL     1      11.800   1.872 -15.057  1.00  0.00    +0.111 C 
BRANCH  13  14
ATOM     14  C   UNL     1      11.144   3.179 -15.483  1.00  0.00    +0.132 C 
BRANCH  14  15
ATOM     15  C   UNL     1      11.312   4.233 -14.423  1.00  0.00    +0.303 C 
ATOM     16  O   UNL     1      10.436   4.726 -13.733  1.00  0.00    -0.252 OA
BRANCH  15  17
ATOM     17  O   UNL     1      12.587   4.654 -14.324  1.00  0.00    -0.481 OA
ATOM     18  H   UNL     1      12.791   4.575 -13.368  1.00  0.00    +0.296 HD
ENDBRANCH  15  17
ENDBRANCH  14  15
ENDBRANCH  13  14
ENDBRANCH  10  13
ENDBRANCH   7   9
ENDBRANCH   4   7
ENDBRANCH   1   3
BRANCH   1  19
ATOM     19  C   UNL     1       4.986  -0.003 -11.496  1.00  0.00    +0.245 C 
ATOM     20  O   UNL     1       4.395   0.374 -10.477  1.00  0.00    -0.272 OA
BRANCH  19  21
ATOM     21  N   UNL     1       4.554   0.364 -12.749  1.00  0.00    -0.329 N 
ATOM     22  C   UNL     1       4.547  -0.439 -13.963  1.00  0.00    +0.120 C 
ATOM     23  C   UNL     1       4.114   1.730 -13.010  1.00  0.00    +0.174 C 
ATOM     24  C   UNL     1       4.173   0.533 -15.076  1.00  0.00    +0.024 C 
ATOM     25  C   UNL     1       3.389   1.623 -14.351  1.00  0.00    +0.037 C 
BRANCH  23  26
ATOM     26  C   UNL     1       5.312   2.700 -13.122  1.00  0.00    +0.243 C 
ATOM     27  O   UNL     1       6.227   2.561 -13.933  1.00  0.00    -0.273 OA
ATOM     28  N   UNL     1       5.240   3.783 -12.263  1.00  0.00    -0.342 N 
ATOM     29  H   UNL     1       4.317   4.020 -11.915  1.00  0.00    +0.164 HD
BRANCH  28  30
ATOM     30  C   UNL     1       6.144   4.921 -12.443  1.00  0.00    +0.176 C 
BRANCH  30  31
ATOM     31  C   UNL     1       6.421   5.607 -11.097  1.00  0.00    +0.070 C 
BRANCH  31  32
ATOM     32  C   UNL     1       7.337   6.803 -11.215  1.00  0.00    -0.045 A 
ATOM     33  C   UNL     1       6.819   8.104 -11.167  1.00  0.00    +0.004 A 
ATOM     34  C   UNL     1       8.713   6.624 -11.412  1.00  0.00    +0.004 A 
ATOM     35  C   UNL     1       7.661   9.206 -11.325  1.00  0.00    +0.000 A 
ATOM     36  C   UNL     1       9.553   7.728 -11.569  1.00  0.00    +0.000 A 
ATOM     37  C   UNL     1       9.027   9.017 -11.528  1.00  0.00    +0.000 A 
ENDBRANCH  31  32
ENDBRANCH  30  31
BRANCH  30  38
ATOM     38  C   UNL     1       5.446   5.897 -13.422  1.00  0.00    +0.247 C 
ATOM     39  O   UNL     1       5.983   6.203 -14.487  1.00  0.00    -0.272 OA
ATOM     40  N   UNL     1       4.196   6.306 -12.992  1.00  0.00    -0.324 N 
ATOM     41  H   UNL     1       3.872   5.918 -12.111  1.00  0.00    +0.170 HD
BRANCH  40  42
ATOM     42  C   UNL     1       3.288   7.154 -13.655  1.00  0.00    +0.041 A 
ATOM     43  C   UNL     1       2.100   6.719 -14.248  1.00  0.00    +0.033 A 
ATOM     44  C   UNL     1       3.619   8.516 -13.711  1.00  0.00    +0.033 A 
ATOM     45  C   UNL     1       1.248   7.627 -14.889  1.00  0.00    +0.088 A 
ATOM     46  C   UNL     1       2.776   9.434 -14.348  1.00  0.00    +0.088 A 
ATOM     47  C   UNL     1       1.589   8.983 -14.936  1.00  0.00    +0.269 A 
BRANCH  47  48
ATOM     48  N   UNL     1       0.698   9.938 -15.605  1.00  0.00    +0.062 N 
ATOM     49  O   UNL     1       0.008   9.519 -16.546  1.00  0.00    -0.258 OA
ATOM     50  O   UNL     1       0.689  11.106 -15.192  1.00  0.00    -0.258 OA
ENDBRANCH  47  48
ENDBRANCH  40  42
ENDBRANCH  30  38
ENDBRANCH  28  30
ENDBRANCH  23  26
ENDBRANCH  19  21
ENDBRANCH   1  19
TORSDOF 16
ENDMDL
