MODEL 1
REMARK VINA RESULT:    -5.889      0.000      0.000
REMARK INTER + INTRA:         -10.459
REMARK INTER:                  -8.642
REMARK INTRA:                  -1.816
REMARK UNBOUND:                -1.816
REMARK SMILES O=S(=O)(O)OC[C@@H]1O[C@H](O[C@H]2[C@@H]3OC[C@H]2O[C@@H](O)[C@H]3O)[C@@H](O)[C@H](O)[C@@H]1O
REMARK SMILES IDX 9 1 21 2 23 3 25 4 7 5 8 6 10 7 11 8 14 9 15 10 13 11 16 12
REMARK SMILES IDX 12 13 17 14 19 15 18 16 20 18 22 20 24 22 6 24 5 25 2 26
REMARK SMILES IDX 1 27 3 28 4 29 26 31
REMARK H PARENT 18 17 20 19 22 21 24 23 4 30 26 32
ROOT
ATOM      1  C   UNL     1       0.091  15.251   4.341  1.00  0.00    +0.282 C 
ATOM      2  C   UNL     1      -1.201  15.353   5.175  1.00  0.00    +0.202 C 
ATOM      3  C   UNL     1      -2.379  15.058   4.263  1.00  0.00    +0.179 C 
ATOM      4  C   UNL     1      -2.291  13.608   3.777  1.00  0.00    +0.177 C 
ATOM      5  C   UNL     1      -0.838  13.148   3.512  1.00  0.00    +0.180 C 
ATOM      6  O   UNL     1       0.061  14.257   3.318  1.00  0.00    -0.341 OA
ENDROOT
BRANCH   1   7
ATOM      7  O   UNL     1       1.186  15.092   5.247  1.00  0.00    -0.341 OA
BRANCH   7   8
ATOM      8  C   UNL     1       1.894  16.305   5.481  1.00  0.00    +0.184 C 
ATOM      9  C   UNL     1       3.861  17.572   5.620  1.00  0.00    +0.195 C 
ATOM     10  C   UNL     1       3.300  16.343   4.903  1.00  0.00    +0.179 C 
ATOM     11  O   UNL     1       3.225  17.595   6.924  1.00  0.00    -0.370 OA
ATOM     12  O   UNL     1       4.005  15.128   5.218  1.00  0.00    -0.342 OA
ATOM     13  C   UNL     1       2.281  16.493   6.943  1.00  0.00    +0.184 C 
ATOM     14  C   UNL     1       4.171  14.837   6.602  1.00  0.00    +0.279 C 
ATOM     15  C   UNL     1       2.959  15.224   7.478  1.00  0.00    +0.202 C 
BRANCH  14  16
ATOM     16  O   UNL     1       5.350  15.489   7.068  1.00  0.00    -0.366 OA
ATOM     17  H   UNL     1       5.721  14.878   7.729  1.00  0.00    +0.213 HD
ENDBRANCH  14  16
BRANCH  15  18
ATOM     18  O   UNL     1       3.356  15.410   8.843  1.00  0.00    -0.385 OA
ATOM     19  H   UNL     1       3.554  14.502   9.158  1.00  0.00    +0.211 HD
ENDBRANCH  15  18
ENDBRANCH   7   8
ENDBRANCH   1   7
BRANCH   2  20
ATOM     20  O   UNL     1      -1.358  16.666   5.739  1.00  0.00    -0.385 OA
ATOM     21  H   UNL     1      -1.418  17.281   4.982  1.00  0.00    +0.211 HD
ENDBRANCH   2  20
BRANCH   3  22
ATOM     22  O   UNL     1      -3.618  15.247   4.967  1.00  0.00    -0.387 OA
ATOM     23  H   UNL     1      -3.423  15.937   5.636  1.00  0.00    +0.211 HD
ENDBRANCH   3  22
BRANCH   5  24
ATOM     24  C   UNL     1      -0.282  12.128   4.522  1.00  0.00    +0.220 C 
BRANCH  24  25
ATOM     25  O   UNL     1       0.803  11.432   3.912  1.00  0.00    -0.245 OA
BRANCH  25  26
ATOM     26  S   UNL     1       2.279  11.611   4.562  1.00  0.00    +0.397 S 
ATOM     27  O   UNL     1       3.161  10.573   4.078  1.00  0.00    -0.169 OA
ATOM     28  O   UNL     1       2.123  11.894   5.971  1.00  0.00    -0.169 OA
BRANCH  26  29
ATOM     29  O   UNL     1       2.762  13.004   3.916  1.00  0.00    -0.264 OA
ATOM     30  H   UNL     1       2.210  13.156   3.122  1.00  0.00    +0.236 HD
ENDBRANCH  26  29
ENDBRANCH  25  26
ENDBRANCH  24  25
ENDBRANCH   5  24
BRANCH   4  31
ATOM     31  O   UNL     1      -2.946  12.756   4.724  1.00  0.00    -0.387 OA
ATOM     32  H   UNL     1      -2.386  11.948   4.763  1.00  0.00    +0.211 HD
ENDBRANCH   4  31
TORSDOF 11
ENDMDL
MODEL 2
REMARK VINA RESULT:    -5.658      6.958     10.563
REMARK INTER + INTRA:         -10.120
REMARK INTER:                  -8.922
REMARK INTRA:                  -1.198
REMARK UNBOUND:                -1.816
REMARK SMILES O=S(=O)(O)OC[C@@H]1O[C@H](O[C@H]2[C@@H]3OC[C@H]2O[C@@H](O)[C@H]3O)[C@@H](O)[C@H](O)[C@@H]1O
REMARK SMILES IDX 9 1 21 2 23 3 25 4 7 5 8 6 10 7 11 8 14 9 15 10 13 11 16 12
REMARK SMILES IDX 12 13 17 14 19 15 18 16 20 18 22 20 24 22 6 24 5 25 2 26
REMARK SMILES IDX 1 27 3 28 4 29 26 31
REMARK H PARENT 18 17 20 19 22 21 24 23 4 30 26 32
ROOT
ATOM      1  C   UNL     1      -0.516  11.856  -2.442  1.00  0.00    +0.282 C 
ATOM      2  C   UNL     1       0.233  10.674  -1.797  1.00  0.00    +0.202 C 
ATOM      3  C   UNL     1       1.283  11.235  -0.854  1.00  0.00    +0.179 C 
ATOM      4  C   UNL     1       0.590  11.982   0.288  1.00  0.00    +0.177 C 
ATOM      5  C   UNL     1      -0.675  12.745  -0.171  1.00  0.00    +0.180 C 
ATOM      6  O   UNL     1      -0.683  12.989  -1.591  1.00  0.00    -0.341 OA
ENDROOT
BRANCH   1   7
ATOM      7  O   UNL     1      -1.750  11.360  -2.966  1.00  0.00    -0.341 OA
BRANCH   7   8
ATOM      8  C   UNL     1      -1.762  11.292  -4.389  1.00  0.00    +0.184 C 
ATOM      9  C   UNL     1      -2.616  11.877  -6.492  1.00  0.00    +0.195 C 
ATOM     10  C   UNL     1      -2.492  12.437  -5.074  1.00  0.00    +0.179 C 
ATOM     11  O   UNL     1      -2.756  10.441  -6.339  1.00  0.00    -0.370 OA
ATOM     12  O   UNL     1      -3.762  12.673  -4.441  1.00  0.00    -0.342 OA
ATOM     13  C   UNL     1      -2.635  10.161  -4.920  1.00  0.00    +0.184 C 
ATOM     14  C   UNL     1      -4.679  11.585  -4.443  1.00  0.00    +0.279 C 
ATOM     15  C   UNL     1      -4.018  10.202  -4.254  1.00  0.00    +0.202 C 
BRANCH  14  16
ATOM     16  O   UNL     1      -5.425  11.617  -5.657  1.00  0.00    -0.366 OA
ATOM     17  H   UNL     1      -5.982  10.819  -5.623  1.00  0.00    +0.213 HD
ENDBRANCH  14  16
BRANCH  15  18
ATOM     18  O   UNL     1      -4.853   9.161  -4.778  1.00  0.00    -0.385 OA
ATOM     19  H   UNL     1      -5.227   8.733  -3.978  1.00  0.00    +0.211 HD
ENDBRANCH  15  18
ENDBRANCH   7   8
ENDBRANCH   1   7
BRANCH   2  20
ATOM     20  O   UNL     1       0.877   9.856  -2.790  1.00  0.00    -0.385 OA
ATOM     21  H   UNL     1       1.232   9.081  -2.312  1.00  0.00    +0.211 HD
ENDBRANCH   2  20
BRANCH   3  22
ATOM     22  O   UNL     1       2.085  10.174  -0.308  1.00  0.00    -0.387 OA
ATOM     23  H   UNL     1       2.822  10.628   0.152  1.00  0.00    +0.211 HD
ENDBRANCH   3  22
BRANCH   5  24
ATOM     24  C   UNL     1      -2.009  12.150   0.316  1.00  0.00    +0.220 C 
BRANCH  24  25
ATOM     25  O   UNL     1      -2.298  12.682   1.606  1.00  0.00    -0.245 OA
BRANCH  25  26
ATOM     26  S   UNL     1      -3.052  11.717   2.672  1.00  0.00    +0.397 S 
ATOM     27  O   UNL     1      -4.080  10.953   2.003  1.00  0.00    -0.169 OA
ATOM     28  O   UNL     1      -3.317  12.483   3.869  1.00  0.00    -0.169 OA
BRANCH  26  29
ATOM     29  O   UNL     1      -1.878  10.698   3.089  1.00  0.00    -0.264 OA
ATOM     30  H   UNL     1      -1.523  11.008   3.946  1.00  0.00    +0.236 HD
ENDBRANCH  26  29
ENDBRANCH  25  26
ENDBRANCH  24  25
ENDBRANCH   5  24
BRANCH   4  31
ATOM     31  O   UNL     1       0.291  11.058   1.340  1.00  0.00    -0.387 OA
ATOM     32  H   UNL     1      -0.615  10.733   1.138  1.00  0.00    +0.211 HD
ENDBRANCH   4  31
TORSDOF 11
ENDMDL
MODEL 3
REMARK VINA RESULT:    -5.599      4.180      7.482
REMARK INTER + INTRA:         -10.034
REMARK INTER:                  -8.945
REMARK INTRA:                  -1.089
REMARK UNBOUND:                -1.816
REMARK SMILES O=S(=O)(O)OC[C@@H]1O[C@H](O[C@H]2[C@@H]3OC[C@H]2O[C@@H](O)[C@H]3O)[C@@H](O)[C@H](O)[C@@H]1O
REMARK SMILES IDX 9 1 21 2 23 3 25 4 7 5 8 6 10 7 11 8 14 9 15 10 13 11 16 12
REMARK SMILES IDX 12 13 17 14 19 15 18 16 20 18 22 20 24 22 6 24 5 25 2 26
REMARK SMILES IDX 1 27 3 28 4 29 26 31
REMARK H PARENT 18 17 20 19 22 21 24 23 4 30 26 32
ROOT
ATOM      1  C   UNL     1      -2.196  12.053   1.447  1.00  0.00    +0.282 C 
ATOM      2  C   UNL     1      -2.780  13.110   2.404  1.00  0.00    +0.202 C 
ATOM      3  C   UNL     1      -3.030  12.446   3.748  1.00  0.00    +0.179 C 
ATOM      4  C   UNL     1      -1.693  12.007   4.351  1.00  0.00    +0.177 C 
ATOM      5  C   UNL     1      -0.692  11.491   3.289  1.00  0.00    +0.180 C 
ATOM      6  O   UNL     1      -1.345  11.092   2.069  1.00  0.00    -0.341 OA
ENDROOT
BRANCH   1   7
ATOM      7  O   UNL     1      -1.566  12.744   0.364  1.00  0.00    -0.341 OA
BRANCH   7   8
ATOM      8  C   UNL     1      -1.488  11.962  -0.823  1.00  0.00    +0.184 C 
ATOM      9  C   UNL     1      -1.116  11.704  -3.123  1.00  0.00    +0.195 C 
ATOM     10  C   UNL     1      -0.703  12.604  -1.957  1.00  0.00    +0.179 C 
ATOM     11  O   UNL     1      -2.480  11.297  -2.845  1.00  0.00    -0.370 OA
ATOM     12  O   UNL     1      -1.100  13.976  -2.128  1.00  0.00    -0.342 OA
ATOM     13  C   UNL     1      -2.823  11.854  -1.550  1.00  0.00    +0.184 C 
ATOM     14  C   UNL     1      -2.471  14.202  -2.440  1.00  0.00    +0.279 C 
ATOM     15  C   UNL     1      -3.447  13.246  -1.721  1.00  0.00    +0.202 C 
BRANCH  14  16
ATOM     16  O   UNL     1      -2.639  14.113  -3.853  1.00  0.00    -0.366 OA
ATOM     17  H   UNL     1      -2.174  13.294  -4.103  1.00  0.00    +0.213 HD
ENDBRANCH  14  16
BRANCH  15  18
ATOM     18  O   UNL     1      -4.687  13.151  -2.435  1.00  0.00    -0.385 OA
ATOM     19  H   UNL     1      -4.702  12.225  -2.760  1.00  0.00    +0.211 HD
ENDBRANCH  15  18
ENDBRANCH   7   8
ENDBRANCH   1   7
BRANCH   2  20
ATOM     20  O   UNL     1      -4.018  13.645   1.904  1.00  0.00    -0.385 OA
ATOM     21  H   UNL     1      -4.630  12.887   1.831  1.00  0.00    +0.211 HD
ENDBRANCH   2  20
BRANCH   3  22
ATOM     22  O   UNL     1      -3.677  13.362   4.647  1.00  0.00    -0.387 OA
ATOM     23  H   UNL     1      -4.593  13.441   4.307  1.00  0.00    +0.211 HD
ENDBRANCH   3  22
BRANCH   5  24
ATOM     24  C   UNL     1       0.508  12.417   3.021  1.00  0.00    +0.220 C 
BRANCH  24  25
ATOM     25  O   UNL     1       1.706  11.702   3.317  1.00  0.00    -0.245 OA
BRANCH  25  26
ATOM     26  S   UNL     1       2.527  12.123   4.652  1.00  0.00    +0.397 S 
ATOM     27  O   UNL     1       1.618  12.269   5.766  1.00  0.00    -0.169 OA
ATOM     28  O   UNL     1       3.478  13.151   4.295  1.00  0.00    -0.169 OA
BRANCH  26  29
ATOM     29  O   UNL     1       3.422  10.812   4.921  1.00  0.00    -0.264 OA
ATOM     30  H   UNL     1       3.477  10.326   4.073  1.00  0.00    +0.236 HD
ENDBRANCH  26  29
ENDBRANCH  25  26
ENDBRANCH  24  25
ENDBRANCH   5  24
BRANCH   4  31
ATOM     31  O   UNL     1      -1.141  13.090   5.108  1.00  0.00    -0.387 OA
ATOM     32  H   UNL     1      -1.576  13.896   4.747  1.00  0.00    +0.211 HD
ENDBRANCH   4  31
TORSDOF 11
ENDMDL
MODEL 4
REMARK VINA RESULT:    -5.554      3.915      6.674
REMARK INTER + INTRA:          -9.967
REMARK INTER:                  -8.862
REMARK INTRA:                  -1.106
REMARK UNBOUND:                -1.816
REMARK SMILES O=S(=O)(O)OC[C@@H]1O[C@H](O[C@H]2[C@@H]3OC[C@H]2O[C@@H](O)[C@H]3O)[C@@H](O)[C@H](O)[C@@H]1O
REMARK SMILES IDX 9 1 21 2 23 3 25 4 7 5 8 6 10 7 11 8 14 9 15 10 13 11 16 12
REMARK SMILES IDX 12 13 17 14 19 15 18 16 20 18 22 20 24 22 6 24 5 25 2 26
REMARK SMILES IDX 1 27 3 28 4 29 26 31
REMARK H PARENT 18 17 20 19 22 21 24 23 4 30 26 32
ROOT
ATOM      1  C   UNL     1      -1.755  12.055   1.303  1.00  0.00    +0.282 C 
ATOM      2  C   UNL     1      -2.314  13.244   2.109  1.00  0.00    +0.202 C 
ATOM      3  C   UNL     1      -2.760  12.728   3.467  1.00  0.00    +0.179 C 
ATOM      4  C   UNL     1      -1.540  12.217   4.239  1.00  0.00    +0.177 C 
ATOM      5  C   UNL     1      -0.502  11.516   3.330  1.00  0.00    +0.180 C 
ATOM      6  O   UNL     1      -1.074  11.075   2.083  1.00  0.00    -0.341 OA
ENDROOT
BRANCH   1   7
ATOM      7  O   UNL     1      -0.956  12.584   0.241  1.00  0.00    -0.341 OA
BRANCH   7   8
ATOM      8  C   UNL     1      -0.776  11.664  -0.830  1.00  0.00    +0.184 C 
ATOM      9  C   UNL     1       0.538  10.247  -2.157  1.00  0.00    +0.195 C 
ATOM     10  C   UNL     1       0.487  10.822  -0.741  1.00  0.00    +0.179 C 
ATOM     11  O   UNL     1      -0.024  11.270  -3.020  1.00  0.00    -0.370 OA
ATOM     12  O   UNL     1       1.620  11.649  -0.421  1.00  0.00    -0.342 OA
ATOM     13  C   UNL     1      -0.457  12.350  -2.153  1.00  0.00    +0.184 C 
ATOM     14  C   UNL     1       1.923  12.689  -1.345  1.00  0.00    +0.279 C 
ATOM     15  C   UNL     1       0.679  13.365  -1.963  1.00  0.00    +0.202 C 
BRANCH  14  16
ATOM     16  O   UNL     1       2.761  12.161  -2.370  1.00  0.00    -0.366 OA
ATOM     17  H   UNL     1       3.124  12.946  -2.817  1.00  0.00    +0.213 HD
ENDBRANCH  14  16
BRANCH  15  18
ATOM     18  O   UNL     1       1.004  13.987  -3.213  1.00  0.00    -0.385 OA
ATOM     19  H   UNL     1       0.131  14.153  -3.629  1.00  0.00    +0.211 HD
ENDBRANCH  15  18
ENDBRANCH   7   8
ENDBRANCH   1   7
BRANCH   2  20
ATOM     20  O   UNL     1      -3.435  13.849   1.443  1.00  0.00    -0.385 OA
ATOM     21  H   UNL     1      -3.397  13.543   0.516  1.00  0.00    +0.211 HD
ENDBRANCH   2  20
BRANCH   3  22
ATOM     22  O   UNL     1      -3.390  13.778   4.220  1.00  0.00    -0.387 OA
ATOM     23  H   UNL     1      -4.319  13.788   3.905  1.00  0.00    +0.211 HD
ENDBRANCH   3  22
BRANCH   5  24
ATOM     24  C   UNL     1       0.809  12.294   3.116  1.00  0.00    +0.220 C 
BRANCH  24  25
ATOM     25  O   UNL     1       1.893  11.488   3.574  1.00  0.00    -0.245 OA
BRANCH  25  26
ATOM     26  S   UNL     1       2.809  12.068   4.782  1.00  0.00    +0.397 S 
ATOM     27  O   UNL     1       3.491  13.268   4.353  1.00  0.00    -0.169 OA
ATOM     28  O   UNL     1       3.509  10.960   5.392  1.00  0.00    -0.169 OA
BRANCH  26  29
ATOM     29  O   UNL     1       1.699  12.497   5.866  1.00  0.00    -0.264 OA
ATOM     30  H   UNL     1       2.157  13.032   6.547  1.00  0.00    +0.236 HD
ENDBRANCH  26  29
ENDBRANCH  25  26
ENDBRANCH  24  25
ENDBRANCH   5  24
BRANCH   4  31
ATOM     31  O   UNL     1      -0.953  13.304   4.962  1.00  0.00    -0.387 OA
ATOM     32  H   UNL     1      -1.457  14.098   4.675  1.00  0.00    +0.211 HD
ENDBRANCH   4  31
TORSDOF 11
ENDMDL
MODEL 5
REMARK VINA RESULT:    -5.483      3.235      5.146
REMARK INTER + INTRA:          -9.863
REMARK INTER:                  -8.767
REMARK INTRA:                  -1.096
REMARK UNBOUND:                -1.816
REMARK SMILES O=S(=O)(O)OC[C@@H]1O[C@H](O[C@H]2[C@@H]3OC[C@H]2O[C@@H](O)[C@H]3O)[C@@H](O)[C@H](O)[C@@H]1O
REMARK SMILES IDX 9 1 21 2 23 3 25 4 7 5 8 6 10 7 11 8 14 9 15 10 13 11 16 12
REMARK SMILES IDX 12 13 17 14 19 15 18 16 20 18 22 20 24 22 6 24 5 25 2 26
REMARK SMILES IDX 1 27 3 28 4 29 26 31
REMARK H PARENT 18 17 20 19 22 21 24 23 4 30 26 32
ROOT
ATOM      1  C   UNL     1      -1.833  14.506   3.447  1.00  0.00    +0.282 C 
ATOM      2  C   UNL     1      -2.583  13.233   3.008  1.00  0.00    +0.202 C 
ATOM      3  C   UNL     1      -1.768  12.555   1.919  1.00  0.00    +0.179 C 
ATOM      4  C   UNL     1      -0.431  12.090   2.504  1.00  0.00    +0.177 C 
ATOM      5  C   UNL     1       0.146  13.076   3.547  1.00  0.00    +0.180 C 
ATOM      6  O   UNL     1      -0.411  14.398   3.419  1.00  0.00    -0.341 OA
ENDROOT
BRANCH   1   7
ATOM      7  O   UNL     1      -2.343  14.894   4.726  1.00  0.00    -0.341 OA
BRANCH   7   8
ATOM      8  C   UNL     1      -3.027  16.143   4.695  1.00  0.00    +0.184 C 
ATOM      9  C   UNL     1      -3.523  18.264   5.560  1.00  0.00    +0.195 C 
ATOM     10  C   UNL     1      -2.389  17.238   5.536  1.00  0.00    +0.179 C 
ATOM     11  O   UNL     1      -4.754  17.495   5.534  1.00  0.00    -0.370 OA
ATOM     12  O   UNL     1      -2.049  16.735   6.840  1.00  0.00    -0.342 OA
ATOM     13  C   UNL     1      -4.368  16.101   5.417  1.00  0.00    +0.184 C 
ATOM     14  C   UNL     1      -3.126  16.234   7.624  1.00  0.00    +0.279 C 
ATOM     15  C   UNL     1      -4.201  15.479   6.810  1.00  0.00    +0.202 C 
BRANCH  14  16
ATOM     16  O   UNL     1      -3.715  17.318   8.338  1.00  0.00    -0.366 OA
ATOM     17  H   UNL     1      -4.660  17.277   8.108  1.00  0.00    +0.213 HD
ENDBRANCH  14  16
BRANCH  15  18
ATOM     18  O   UNL     1      -5.454  15.470   7.505  1.00  0.00    -0.385 OA
ATOM     19  H   UNL     1      -6.038  14.926   6.934  1.00  0.00    +0.211 HD
ENDBRANCH  15  18
ENDBRANCH   7   8
ENDBRANCH   1   7
BRANCH   2  20
ATOM     20  O   UNL     1      -3.890  13.543   2.495  1.00  0.00    -0.385 OA
ATOM     21  H   UNL     1      -3.833  13.434   1.525  1.00  0.00    +0.211 HD
ENDBRANCH   2  20
BRANCH   3  22
ATOM     22  O   UNL     1      -2.476  11.418   1.397  1.00  0.00    -0.387 OA
ATOM     23  H   UNL     1      -1.791  10.882   0.945  1.00  0.00    +0.211 HD
ENDBRANCH   3  22
BRANCH   5  24
ATOM     24  C   UNL     1       0.112  12.579   5.004  1.00  0.00    +0.220 C 
BRANCH  24  25
ATOM     25  O   UNL     1       1.422  12.697   5.554  1.00  0.00    -0.245 OA
BRANCH  25  26
ATOM     26  S   UNL     1       2.386  11.392   5.500  1.00  0.00    +0.397 S 
ATOM     27  O   UNL     1       2.849  11.065   6.829  1.00  0.00    -0.169 OA
ATOM     28  O   UNL     1       3.293  11.544   4.384  1.00  0.00    -0.169 OA
BRANCH  26  29
ATOM     29  O   UNL     1       1.361  10.239   5.041  1.00  0.00    -0.264 OA
ATOM     30  H   UNL     1       1.734   9.832   4.233  1.00  0.00    +0.236 HD
ENDBRANCH  26  29
ENDBRANCH  25  26
ENDBRANCH  24  25
ENDBRANCH   5  24
BRANCH   4  31
ATOM     31  O   UNL     1      -0.590  10.778   3.056  1.00  0.00    -0.387 OA
ATOM     32  H   UNL     1       0.210  10.285   2.766  1.00  0.00    +0.211 HD
ENDBRANCH   4  31
TORSDOF 11
ENDMDL
MODEL 6
REMARK VINA RESULT:    -5.468      1.968      4.286
REMARK INTER + INTRA:          -9.841
REMARK INTER:                  -8.435
REMARK INTRA:                  -1.406
REMARK UNBOUND:                -1.816
REMARK SMILES O=S(=O)(O)OC[C@@H]1O[C@H](O[C@H]2[C@@H]3OC[C@H]2O[C@@H](O)[C@H]3O)[C@@H](O)[C@H](O)[C@@H]1O
REMARK SMILES IDX 9 1 21 2 23 3 25 4 7 5 8 6 10 7 11 8 14 9 15 10 13 11 16 12
REMARK SMILES IDX 12 13 17 14 19 15 18 16 20 18 22 20 24 22 6 24 5 25 2 26
REMARK SMILES IDX 1 27 3 28 4 29 26 31
REMARK H PARENT 18 17 20 19 22 21 24 23 4 30 26 32
ROOT
ATOM      1  C   UNL     1       1.234  13.401   5.510  1.00  0.00    +0.282 C 
ATOM      2  C   UNL     1       1.600  13.198   4.027  1.00  0.00    +0.202 C 
ATOM      3  C   UNL     1       0.807  12.013   3.501  1.00  0.00    +0.179 C 
ATOM      4  C   UNL     1      -0.686  12.347   3.537  1.00  0.00    +0.177 C 
ATOM      5  C   UNL     1      -1.085  13.193   4.770  1.00  0.00    +0.180 C 
ATOM      6  O   UNL     1      -0.121  13.097   5.836  1.00  0.00    -0.341 OA
ENDROOT
BRANCH   1   7
ATOM      7  O   UNL     1       1.617  14.729   5.877  1.00  0.00    -0.341 OA
BRANCH   7   8
ATOM      8  C   UNL     1       2.622  14.759   6.885  1.00  0.00    +0.184 C 
ATOM      9  C   UNL     1       4.013  15.879   8.404  1.00  0.00    +0.195 C 
ATOM     10  C   UNL     1       2.659  16.036   7.710  1.00  0.00    +0.179 C 
ATOM     11  O   UNL     1       4.861  15.173   7.462  1.00  0.00    -0.370 OA
ATOM     12  O   UNL     1       2.589  17.189   6.852  1.00  0.00    -0.342 OA
ATOM     13  C   UNL     1       4.032  14.858   6.314  1.00  0.00    +0.184 C 
ATOM     14  C   UNL     1       3.632  17.327   5.894  1.00  0.00    +0.279 C 
ATOM     15  C   UNL     1       4.106  15.991   5.280  1.00  0.00    +0.202 C 
BRANCH  14  16
ATOM     16  O   UNL     1       4.726  18.008   6.504  1.00  0.00    -0.366 OA
ATOM     17  H   UNL     1       4.556  18.951   6.328  1.00  0.00    +0.213 HD
ENDBRANCH  14  16
BRANCH  15  18
ATOM     18  O   UNL     1       5.439  16.109   4.766  1.00  0.00    -0.385 OA
ATOM     19  H   UNL     1       5.308  16.379   3.832  1.00  0.00    +0.211 HD
ENDBRANCH  15  18
ENDBRANCH   7   8
ENDBRANCH   1   7
BRANCH   2  20
ATOM     20  O   UNL     1       3.004  12.937   3.862  1.00  0.00    -0.385 OA
ATOM     21  H   UNL     1       3.191  12.128   4.377  1.00  0.00    +0.211 HD
ENDBRANCH   2  20
BRANCH   3  22
ATOM     22  O   UNL     1       1.193  11.712   2.149  1.00  0.00    -0.387 OA
ATOM     23  H   UNL     1       1.594  12.541   1.813  1.00  0.00    +0.211 HD
ENDBRANCH   3  22
BRANCH   5  24
ATOM     24  C   UNL     1      -1.459  14.655   4.465  1.00  0.00    +0.220 C 
BRANCH  24  25
ATOM     25  O   UNL     1      -2.261  15.150   5.535  1.00  0.00    -0.245 OA
BRANCH  25  26
ATOM     26  S   UNL     1      -1.970  16.656   6.066  1.00  0.00    +0.397 S 
ATOM     27  O   UNL     1      -2.729  16.911   7.269  1.00  0.00    -0.169 OA
ATOM     28  O   UNL     1      -2.001  17.551   4.931  1.00  0.00    -0.169 OA
BRANCH  26  29
ATOM     29  O   UNL     1      -0.416  16.570   6.477  1.00  0.00    -0.264 OA
ATOM     30  H   UNL     1      -0.248  15.650   6.764  1.00  0.00    +0.236 HD
ENDBRANCH  26  29
ENDBRANCH  25  26
ENDBRANCH  24  25
ENDBRANCH   5  24
BRANCH   4  31
ATOM     31  O   UNL     1      -1.051  12.999   2.315  1.00  0.00    -0.387 OA
ATOM     32  H   UNL     1      -1.937  13.388   2.493  1.00  0.00    +0.211 HD
ENDBRANCH   4  31
TORSDOF 11
ENDMDL
MODEL 7
REMARK VINA RESULT:    -5.448     20.367     22.881
REMARK INTER + INTRA:          -9.812
REMARK INTER:                  -8.473
REMARK INTRA:                  -1.339
REMARK UNBOUND:                -1.816
REMARK SMILES O=S(=O)(O)OC[C@@H]1O[C@H](O[C@H]2[C@@H]3OC[C@H]2O[C@@H](O)[C@H]3O)[C@@H](O)[C@H](O)[C@@H]1O
REMARK SMILES IDX 9 1 21 2 23 3 25 4 7 5 8 6 10 7 11 8 14 9 15 10 13 11 16 12
REMARK SMILES IDX 12 13 17 14 19 15 18 16 20 18 22 20 24 22 6 24 5 25 2 26
REMARK SMILES IDX 1 27 3 28 4 29 26 31
REMARK H PARENT 18 17 20 19 22 21 24 23 4 30 26 32
ROOT
ATOM      1  C   UNL     1      13.512   0.514  18.828  1.00  0.00    +0.282 C 
ATOM      2  C   UNL     1      12.768  -0.581  18.039  1.00  0.00    +0.202 C 
ATOM      3  C   UNL     1      13.088  -1.923  18.675  1.00  0.00    +0.179 C 
ATOM      4  C   UNL     1      12.524  -1.956  20.098  1.00  0.00    +0.177 C 
ATOM      5  C   UNL     1      12.635  -0.593  20.822  1.00  0.00    +0.180 C 
ATOM      6  O   UNL     1      13.628   0.264  20.227  1.00  0.00    -0.341 OA
ENDROOT
BRANCH   1   7
ATOM      7  O   UNL     1      12.890   1.767  18.530  1.00  0.00    -0.341 OA
BRANCH   7   8
ATOM      8  C   UNL     1      13.742   2.882  18.774  1.00  0.00    +0.184 C 
ATOM      9  C   UNL     1      14.286   5.156  18.619  1.00  0.00    +0.195 C 
ATOM     10  C   UNL     1      13.064   4.238  18.655  1.00  0.00    +0.179 C 
ATOM     11  O   UNL     1      15.327   4.403  17.945  1.00  0.00    -0.370 OA
ATOM     12  O   UNL     1      12.269   4.299  17.457  1.00  0.00    -0.342 OA
ATOM     13  C   UNL     1      14.778   3.087  17.675  1.00  0.00    +0.184 C 
ATOM     14  C   UNL     1      12.965   4.115  16.229  1.00  0.00    +0.279 C 
ATOM     15  C   UNL     1      14.100   3.069  16.298  1.00  0.00    +0.202 C 
BRANCH  14  16
ATOM     16  O   UNL     1      13.476   5.374  15.799  1.00  0.00    -0.366 OA
ATOM     17  H   UNL     1      13.567   5.284  14.834  1.00  0.00    +0.213 HD
ENDBRANCH  14  16
BRANCH  15  18
ATOM     18  O   UNL     1      15.067   3.296  15.265  1.00  0.00    -0.385 OA
ATOM     19  H   UNL     1      14.891   4.217  14.974  1.00  0.00    +0.211 HD
ENDBRANCH  15  18
ENDBRANCH   7   8
ENDBRANCH   1   7
BRANCH   2  20
ATOM     20  O   UNL     1      13.175  -0.603  16.660  1.00  0.00    -0.385 OA
ATOM     21  H   UNL     1      13.146   0.325  16.355  1.00  0.00    +0.211 HD
ENDBRANCH   2  20
BRANCH   3  22
ATOM     22  O   UNL     1      12.505  -2.992  17.910  1.00  0.00    -0.387 OA
ATOM     23  H   UNL     1      12.071  -2.549  17.151  1.00  0.00    +0.211 HD
ENDBRANCH   3  22
BRANCH   5  24
ATOM     24  C   UNL     1      11.299   0.141  21.038  1.00  0.00    +0.220 C 
BRANCH  24  25
ATOM     25  O   UNL     1      10.858  -0.104  22.371  1.00  0.00    -0.245 OA
BRANCH  25  26
ATOM     26  S   UNL     1       9.499  -0.969  22.572  1.00  0.00    +0.397 S 
ATOM     27  O   UNL     1       8.612  -0.288  23.489  1.00  0.00    -0.169 OA
ATOM     28  O   UNL     1       9.864  -2.357  22.741  1.00  0.00    -0.169 OA
BRANCH  26  29
ATOM     29  O   UNL     1       8.837  -0.895  21.106  1.00  0.00    -0.264 OA
ATOM     30  H   UNL     1       9.546  -0.631  20.486  1.00  0.00    +0.236 HD
ENDBRANCH  26  29
ENDBRANCH  25  26
ENDBRANCH  24  25
ENDBRANCH   5  24
BRANCH   4  31
ATOM     31  O   UNL     1      11.169  -2.418  20.055  1.00  0.00    -0.387 OA
ATOM     32  H   UNL     1      11.146  -3.059  19.310  1.00  0.00    +0.211 HD
ENDBRANCH   4  31
TORSDOF 11
ENDMDL
MODEL 8
REMARK VINA RESULT:    -5.382      2.492      3.040
REMARK INTER + INTRA:          -9.716
REMARK INTER:                  -8.711
REMARK INTRA:                  -1.005
REMARK UNBOUND:                -1.816
REMARK SMILES O=S(=O)(O)OC[C@@H]1O[C@H](O[C@H]2[C@@H]3OC[C@H]2O[C@@H](O)[C@H]3O)[C@@H](O)[C@H](O)[C@@H]1O
REMARK SMILES IDX 9 1 21 2 23 3 25 4 7 5 8 6 10 7 11 8 14 9 15 10 13 11 16 12
REMARK SMILES IDX 12 13 17 14 19 15 18 16 20 18 22 20 24 22 6 24 5 25 2 26
REMARK SMILES IDX 1 27 3 28 4 29 26 31
REMARK H PARENT 18 17 20 19 22 21 24 23 4 30 26 32
ROOT
ATOM      1  C   UNL     1      -0.307  14.132   3.980  1.00  0.00    +0.282 C 
ATOM      2  C   UNL     1      -1.047  13.013   4.738  1.00  0.00    +0.202 C 
ATOM      3  C   UNL     1      -2.345  12.722   4.004  1.00  0.00    +0.179 C 
ATOM      4  C   UNL     1      -2.026  12.165   2.614  1.00  0.00    +0.177 C 
ATOM      5  C   UNL     1      -0.783  12.825   1.971  1.00  0.00    +0.180 C 
ATOM      6  O   UNL     1      -0.471  14.100   2.563  1.00  0.00    -0.341 OA
ENDROOT
BRANCH   1   7
ATOM      7  O   UNL     1       1.064  14.104   4.388  1.00  0.00    -0.341 OA
BRANCH   7   8
ATOM      8  C   UNL     1       1.768  15.295   4.051  1.00  0.00    +0.184 C 
ATOM      9  C   UNL     1       3.736  16.526   3.726  1.00  0.00    +0.195 C 
ATOM     10  C   UNL     1       3.225  15.086   3.669  1.00  0.00    +0.179 C 
ATOM     11  O   UNL     1       2.973  17.176   4.776  1.00  0.00    -0.370 OA
ATOM     12  O   UNL     1       3.872  14.215   4.615  1.00  0.00    -0.342 OA
ATOM     13  C   UNL     1       2.011  16.200   5.253  1.00  0.00    +0.184 C 
ATOM     14  C   UNL     1       3.894  14.658   5.968  1.00  0.00    +0.279 C 
ATOM     15  C   UNL     1       2.609  15.391   6.412  1.00  0.00    +0.202 C 
BRANCH  14  16
ATOM     16  O   UNL     1       5.033  15.494   6.156  1.00  0.00    -0.366 OA
ATOM     17  H   UNL     1       5.397  15.221   7.017  1.00  0.00    +0.213 HD
ENDBRANCH  14  16
BRANCH  15  18
ATOM     18  O   UNL     1       2.871  16.246   7.533  1.00  0.00    -0.385 OA
ATOM     19  H   UNL     1       2.866  15.637   8.302  1.00  0.00    +0.211 HD
ENDBRANCH  15  18
ENDBRANCH   7   8
ENDBRANCH   1   7
BRANCH   2  20
ATOM     20  O   UNL     1      -1.346  13.403   6.089  1.00  0.00    -0.385 OA
ATOM     21  H   UNL     1      -2.276  13.144   6.246  1.00  0.00    +0.211 HD
ENDBRANCH   2  20
BRANCH   3  22
ATOM     22  O   UNL     1      -3.128  11.760   4.731  1.00  0.00    -0.387 OA
ATOM     23  H   UNL     1      -2.635  11.617   5.567  1.00  0.00    +0.211 HD
ENDBRANCH   3  22
BRANCH   5  24
ATOM     24  C   UNL     1       0.459  11.920   1.873  1.00  0.00    +0.220 C 
BRANCH  24  25
ATOM     25  O   UNL     1       0.240  10.962   0.840  1.00  0.00    -0.245 OA
BRANCH  25  26
ATOM     26  S   UNL     1       1.115  11.102  -0.520  1.00  0.00    +0.397 S 
ATOM     27  O   UNL     1       1.655  12.438  -0.625  1.00  0.00    -0.169 OA
ATOM     28  O   UNL     1       0.380  10.481  -1.599  1.00  0.00    -0.169 OA
BRANCH  26  29
ATOM     29  O   UNL     1       2.342  10.100  -0.231  1.00  0.00    -0.264 OA
ATOM     30  H   UNL     1       3.133  10.489  -0.658  1.00  0.00    +0.236 HD
ENDBRANCH  26  29
ENDBRANCH  25  26
ENDBRANCH  24  25
ENDBRANCH   5  24
BRANCH   4  31
ATOM     31  O   UNL     1      -1.879  10.743   2.700  1.00  0.00    -0.387 OA
ATOM     32  H   UNL     1      -1.347  10.595   3.514  1.00  0.00    +0.211 HD
ENDBRANCH   4  31
TORSDOF 11
ENDMDL
MODEL 9
REMARK VINA RESULT:    -5.161      4.706      6.309
REMARK INTER + INTRA:          -9.390
REMARK INTER:                  -8.041
REMARK INTRA:                  -1.349
REMARK UNBOUND:                -1.816
REMARK SMILES O=S(=O)(O)OC[C@@H]1O[C@H](O[C@H]2[C@@H]3OC[C@H]2O[C@@H](O)[C@H]3O)[C@@H](O)[C@H](O)[C@@H]1O
REMARK SMILES IDX 9 1 21 2 23 3 25 4 7 5 8 6 10 7 11 8 14 9 15 10 13 11 16 12
REMARK SMILES IDX 12 13 17 14 19 15 18 16 20 18 22 20 24 22 6 24 5 25 2 26
REMARK SMILES IDX 1 27 3 28 4 29 26 31
REMARK H PARENT 18 17 20 19 22 21 24 23 4 30 26 32
ROOT
ATOM      1  C   UNL     1       0.619  13.101   0.596  1.00  0.00    +0.282 C 
ATOM      2  C   UNL     1       0.764  11.664   0.057  1.00  0.00    +0.202 C 
ATOM      3  C   UNL     1       0.163  11.619  -1.338  1.00  0.00    +0.179 C 
ATOM      4  C   UNL     1       0.981  12.516  -2.271  1.00  0.00    +0.177 C 
ATOM      5  C   UNL     1       1.493  13.800  -1.576  1.00  0.00    +0.180 C 
ATOM      6  O   UNL     1       0.737  14.122  -0.393  1.00  0.00    -0.341 OA
ENDROOT
BRANCH   1   7
ATOM      7  O   UNL     1       1.541  13.257   1.678  1.00  0.00    -0.341 OA
BRANCH   7   8
ATOM      8  C   UNL     1       0.929  13.758   2.862  1.00  0.00    +0.184 C 
ATOM      9  C   UNL     1       1.000  14.519   5.078  1.00  0.00    +0.195 C 
ATOM     10  C   UNL     1       1.883  14.439   3.831  1.00  0.00    +0.179 C 
ATOM     11  O   UNL     1       0.152  13.341   5.039  1.00  0.00    -0.370 OA
ATOM     12  O   UNL     1       3.064  13.639   4.020  1.00  0.00    -0.342 OA
ATOM     13  C   UNL     1       0.458  12.652   3.799  1.00  0.00    +0.184 C 
ATOM     14  C   UNL     1       2.862  12.331   4.543  1.00  0.00    +0.279 C 
ATOM     15  C   UNL     1       1.585  11.634   4.024  1.00  0.00    +0.202 C 
BRANCH  14  16
ATOM     16  O   UNL     1       2.842  12.405   5.967  1.00  0.00    -0.366 OA
ATOM     17  H   UNL     1       2.396  11.587   6.248  1.00  0.00    +0.213 HD
ENDBRANCH  14  16
BRANCH  15  18
ATOM     18  O   UNL     1       1.156  10.611   4.932  1.00  0.00    -0.385 OA
ATOM     19  H   UNL     1       1.090   9.809   4.371  1.00  0.00    +0.211 HD
ENDBRANCH  15  18
ENDBRANCH   7   8
ENDBRANCH   1   7
BRANCH   2  20
ATOM     20  O   UNL     1       0.081  10.717   0.896  1.00  0.00    -0.385 OA
ATOM     21  H   UNL     1       0.779  10.174   1.313  1.00  0.00    +0.211 HD
ENDBRANCH   2  20
BRANCH   3  22
ATOM     22  O   UNL     1       0.174  10.274  -1.845  1.00  0.00    -0.387 OA
ATOM     23  H   UNL     1      -0.452  10.286  -2.600  1.00  0.00    +0.211 HD
ENDBRANCH   3  22
BRANCH   5  24
ATOM     24  C   UNL     1       3.010  13.842  -1.317  1.00  0.00    +0.220 C 
BRANCH  24  25
ATOM     25  O   UNL     1       3.677  14.030  -2.562  1.00  0.00    -0.245 OA
BRANCH  25  26
ATOM     26  S   UNL     1       4.989  13.123  -2.863  1.00  0.00    +0.397 S 
ATOM     27  O   UNL     1       6.187  13.872  -2.560  1.00  0.00    -0.169 OA
ATOM     28  O   UNL     1       4.798  12.455  -4.130  1.00  0.00    -0.169 OA
BRANCH  26  29
ATOM     29  O   UNL     1       4.849  11.958  -1.761  1.00  0.00    -0.264 OA
ATOM     30  H   UNL     1       4.606  11.140  -2.240  1.00  0.00    +0.236 HD
ENDBRANCH  26  29
ENDBRANCH  25  26
ENDBRANCH  24  25
ENDBRANCH   5  24
BRANCH   4  31
ATOM     31  O   UNL     1       2.061  11.755  -2.825  1.00  0.00    -0.387 OA
ATOM     32  H   UNL     1       2.091  12.016  -3.773  1.00  0.00    +0.211 HD
ENDBRANCH   4  31
TORSDOF 11
ENDMDL
