MODEL 1
REMARK VINA RESULT:    -6.341      0.000      0.000
REMARK INTER + INTRA:         -10.547
REMARK INTER:                  -9.306
REMARK INTRA:                  -1.241
REMARK UNBOUND:                -1.241
REMARK SMILES O=S(=O)(O)OC[C@@H]1O[C@H](O[C@H]2[C@@H]3OC[C@H]2O[C@@H](O)[C@H]3O)[C@@H](O)[C@H](O)[C@@H]1O
REMARK SMILES IDX 9 1 21 2 23 3 25 4 7 5 8 6 10 7 11 8 14 9 15 10 13 11 16 12
REMARK SMILES IDX 12 13 17 14 19 15 18 16 20 18 22 20 24 22 6 24 5 25 2 26
REMARK SMILES IDX 1 27 3 28 4 29 26 31
REMARK H PARENT 18 17 20 19 22 21 24 23 4 30 26 32
ROOT
ATOM      1  C   UNL     1     -11.427   3.162   8.451  1.00  0.00    +0.282 C 
ATOM      2  C   UNL     1     -10.075   2.424   8.501  1.00  0.00    +0.202 C 
ATOM      3  C   UNL     1      -9.490   2.409   7.099  1.00  0.00    +0.179 C 
ATOM      4  C   UNL     1      -9.183   3.845   6.664  1.00  0.00    +0.177 C 
ATOM      5  C   UNL     1     -10.233   4.865   7.168  1.00  0.00    +0.180 C 
ATOM      6  O   UNL     1     -11.482   4.238   7.517  1.00  0.00    -0.341 OA
ENDROOT
BRANCH   1   7
ATOM      7  O   UNL     1     -11.760   3.557   9.785  1.00  0.00    -0.341 OA
BRANCH   7   8
ATOM      8  C   UNL     1     -13.116   3.285  10.123  1.00  0.00    +0.184 C 
ATOM      9  C   UNL     1     -14.926   3.272  11.612  1.00  0.00    +0.195 C 
ATOM     10  C   UNL     1     -13.633   4.041  11.337  1.00  0.00    +0.179 C 
ATOM     11  O   UNL     1     -14.661   1.900  11.223  1.00  0.00    -0.370 OA
ATOM     12  O   UNL     1     -12.684   3.966  12.417  1.00  0.00    -0.342 OA
ATOM     13  C   UNL     1     -13.318   1.878  10.671  1.00  0.00    +0.184 C 
ATOM     14  C   UNL     1     -12.369   2.661  12.889  1.00  0.00    +0.279 C 
ATOM     15  C   UNL     1     -12.296   1.589  11.779  1.00  0.00    +0.202 C 
BRANCH  14  16
ATOM     16  O   UNL     1     -13.327   2.288  13.877  1.00  0.00    -0.366 OA
ATOM     17  H   UNL     1     -12.948   1.497  14.298  1.00  0.00    +0.213 HD
ENDBRANCH  14  16
BRANCH  15  18
ATOM     18  O   UNL     1     -12.506   0.278  12.321  1.00  0.00    -0.385 OA
ATOM     19  H   UNL     1     -13.332  -0.027  11.888  1.00  0.00    +0.211 HD
ENDBRANCH  15  18
ENDBRANCH   7   8
ENDBRANCH   1   7
BRANCH   2  20
ATOM     20  O   UNL     1     -10.232   1.070   8.961  1.00  0.00    -0.385 OA
ATOM     21  H   UNL     1     -11.056   0.740   8.553  1.00  0.00    +0.211 HD
ENDBRANCH   2  20
BRANCH   3  22
ATOM     22  O   UNL     1      -8.278   1.636   7.069  1.00  0.00    -0.387 OA
ATOM     23  H   UNL     1      -8.294   1.180   6.202  1.00  0.00    +0.211 HD
ENDBRANCH   3  22
BRANCH   5  24
ATOM     24  C   UNL     1      -9.740   5.816   8.274  1.00  0.00    +0.220 C 
BRANCH  24  25
ATOM     25  O   UNL     1      -8.764   6.692   7.715  1.00  0.00    -0.245 OA
BRANCH  25  26
ATOM     26  S   UNL     1      -7.606   7.262   8.700  1.00  0.00    +0.397 S 
ATOM     27  O   UNL     1      -8.149   8.294   9.554  1.00  0.00    -0.169 OA
ATOM     28  O   UNL     1      -6.404   7.460   7.921  1.00  0.00    -0.169 OA
BRANCH  26  29
ATOM     29  O   UNL     1      -7.291   5.980   9.621  1.00  0.00    -0.264 OA
ATOM     30  H   UNL     1      -6.605   5.458   9.158  1.00  0.00    +0.236 HD
ENDBRANCH  26  29
ENDBRANCH  25  26
ENDBRANCH  24  25
ENDBRANCH   5  24
BRANCH   4  31
ATOM     31  O   UNL     1      -7.864   4.195   7.098  1.00  0.00    -0.387 OA
ATOM     32  H   UNL     1      -7.316   4.166   6.282  1.00  0.00    +0.211 HD
ENDBRANCH   4  31
TORSDOF 11
ENDMDL
MODEL 2
REMARK VINA RESULT:    -6.245      3.355      7.004
REMARK INTER + INTRA:         -10.407
REMARK INTER:                  -9.349
REMARK INTRA:                  -1.058
REMARK UNBOUND:                -1.241
REMARK SMILES O=S(=O)(O)OC[C@@H]1O[C@H](O[C@H]2[C@@H]3OC[C@H]2O[C@@H](O)[C@H]3O)[C@@H](O)[C@H](O)[C@@H]1O
REMARK SMILES IDX 9 1 21 2 23 3 25 4 7 5 8 6 10 7 11 8 14 9 15 10 13 11 16 12
REMARK SMILES IDX 12 13 17 14 19 15 18 16 20 18 22 20 24 22 6 24 5 25 2 26
REMARK SMILES IDX 1 27 3 28 4 29 26 31
REMARK H PARENT 18 17 20 19 22 21 24 23 4 30 26 32
ROOT
ATOM      1  C   UNL     1      -9.922   3.368   5.347  1.00  0.00    +0.282 C 
ATOM      2  C   UNL     1     -10.871   3.045   6.517  1.00  0.00    +0.202 C 
ATOM      3  C   UNL     1     -10.085   2.277   7.566  1.00  0.00    +0.179 C 
ATOM      4  C   UNL     1      -8.986   3.179   8.136  1.00  0.00    +0.177 C 
ATOM      5  C   UNL     1      -8.355   4.107   7.070  1.00  0.00    +0.180 C 
ATOM      6  O   UNL     1      -8.573   3.629   5.729  1.00  0.00    -0.341 OA
ENDROOT
BRANCH   1   7
ATOM      7  O   UNL     1     -10.507   4.431   4.590  1.00  0.00    -0.341 OA
BRANCH   7   8
ATOM      8  C   UNL     1      -9.968   4.540   3.276  1.00  0.00    +0.184 C 
ATOM      9  C   UNL     1      -8.655   5.598   1.648  1.00  0.00    +0.195 C 
ATOM     10  C   UNL     1      -8.736   5.425   3.166  1.00  0.00    +0.179 C 
ATOM     11  O   UNL     1     -10.026   5.586   1.174  1.00  0.00    -0.370 OA
ATOM     12  O   UNL     1      -8.942   6.663   3.870  1.00  0.00    -0.342 OA
ATOM     13  C   UNL     1     -10.863   5.337   2.333  1.00  0.00    +0.184 C 
ATOM     14  C   UNL     1     -10.028   7.468   3.425  1.00  0.00    +0.279 C 
ATOM     15  C   UNL     1     -11.272   6.664   2.987  1.00  0.00    +0.202 C 
BRANCH  14  16
ATOM     16  O   UNL     1      -9.574   8.300   2.360  1.00  0.00    -0.366 OA
ATOM     17  H   UNL     1      -9.678   9.207   2.697  1.00  0.00    +0.213 HD
ENDBRANCH  14  16
BRANCH  15  18
ATOM     18  O   UNL     1     -12.084   7.431   2.089  1.00  0.00    -0.385 OA
ATOM     19  H   UNL     1     -12.095   6.898   1.265  1.00  0.00    +0.211 HD
ENDBRANCH  15  18
ENDBRANCH   7   8
ENDBRANCH   1   7
BRANCH   2  20
ATOM     20  O   UNL     1     -11.986   2.246   6.085  1.00  0.00    -0.385 OA
ATOM     21  H   UNL     1     -12.783   2.672   6.456  1.00  0.00    +0.211 HD
ENDBRANCH   2  20
BRANCH   3  22
ATOM     22  O   UNL     1     -10.951   1.855   8.633  1.00  0.00    -0.387 OA
ATOM     23  H   UNL     1     -10.658   0.945   8.849  1.00  0.00    +0.211 HD
ENDBRANCH   3  22
BRANCH   5  24
ATOM     24  C   UNL     1      -8.710   5.599   7.211  1.00  0.00    +0.220 C 
BRANCH  24  25
ATOM     25  O   UNL     1      -7.499   6.343   7.326  1.00  0.00    -0.245 OA
BRANCH  25  26
ATOM     26  S   UNL     1      -7.226   7.135   8.716  1.00  0.00    +0.397 S 
ATOM     27  O   UNL     1      -8.157   8.232   8.851  1.00  0.00    -0.169 OA
ATOM     28  O   UNL     1      -5.800   7.312   8.865  1.00  0.00    -0.169 OA
BRANCH  26  29
ATOM     29  O   UNL     1      -7.617   6.025   9.815  1.00  0.00    -0.264 OA
ATOM     30  H   UNL     1      -7.364   6.386  10.688  1.00  0.00    +0.236 HD
ENDBRANCH  26  29
ENDBRANCH  25  26
ENDBRANCH  24  25
ENDBRANCH   5  24
BRANCH   4  31
ATOM     31  O   UNL     1      -9.517   3.929   9.234  1.00  0.00    -0.387 OA
ATOM     32  H   UNL     1      -9.328   3.381  10.028  1.00  0.00    +0.211 HD
ENDBRANCH   4  31
TORSDOF 11
ENDMDL
MODEL 3
REMARK VINA RESULT:    -5.967     56.130     58.719
REMARK INTER + INTRA:          -9.998
REMARK INTER:                  -9.298
REMARK INTRA:                  -0.701
REMARK UNBOUND:                -1.241
REMARK SMILES O=S(=O)(O)OC[C@@H]1O[C@H](O[C@H]2[C@@H]3OC[C@H]2O[C@@H](O)[C@H]3O)[C@@H](O)[C@H](O)[C@@H]1O
REMARK SMILES IDX 9 1 21 2 23 3 25 4 7 5 8 6 10 7 11 8 14 9 15 10 13 11 16 12
REMARK SMILES IDX 12 13 17 14 19 15 18 16 20 18 22 20 24 22 6 24 5 25 2 26
REMARK SMILES IDX 1 27 3 28 4 29 26 31
REMARK H PARENT 18 17 20 19 22 21 24 23 4 30 26 32
ROOT
ATOM      1  C   UNL     1      -8.487 -17.017 -44.001  1.00  0.00    +0.282 C 
ATOM      2  C   UNL     1      -9.311 -15.850 -44.578  1.00  0.00    +0.202 C 
ATOM      3  C   UNL     1      -8.348 -14.757 -45.009  1.00  0.00    +0.179 C 
ATOM      4  C   UNL     1      -7.474 -15.277 -46.154  1.00  0.00    +0.177 C 
ATOM      5  C   UNL     1      -7.095 -16.769 -45.994  1.00  0.00    +0.180 C 
ATOM      6  O   UNL     1      -7.226 -17.224 -44.634  1.00  0.00    -0.341 OA
ENDROOT
BRANCH   1   7
ATOM      7  O   UNL     1      -9.317 -18.183 -44.005  1.00  0.00    -0.341 OA
BRANCH   7   8
ATOM      8  C   UNL     1      -8.570 -19.395 -44.030  1.00  0.00    +0.184 C 
ATOM      9  C   UNL     1      -8.382 -21.725 -43.859  1.00  0.00    +0.195 C 
ATOM     10  C   UNL     1      -9.404 -20.651 -44.235  1.00  0.00    +0.179 C 
ATOM     11  O   UNL     1      -7.548 -21.135 -42.829  1.00  0.00    -0.370 OA
ATOM     12  O   UNL     1     -10.557 -20.635 -43.374  1.00  0.00    -0.342 OA
ATOM     13  C   UNL     1      -7.997 -19.765 -42.667  1.00  0.00    +0.184 C 
ATOM     14  C   UNL     1     -10.298 -20.575 -41.975  1.00  0.00    +0.279 C 
ATOM     15  C   UNL     1      -9.091 -19.690 -41.593  1.00  0.00    +0.202 C 
BRANCH  14  16
ATOM     16  O   UNL     1     -10.114 -21.902 -41.488  1.00  0.00    -0.366 OA
ATOM     17  H   UNL     1     -10.650 -22.457 -42.082  1.00  0.00    +0.213 HD
ENDBRANCH  14  16
BRANCH  15  18
ATOM     18  O   UNL     1      -8.563 -20.070 -40.316  1.00  0.00    -0.385 OA
ATOM     19  H   UNL     1      -9.256 -20.652 -39.937  1.00  0.00    +0.211 HD
ENDBRANCH  15  18
ENDBRANCH   7   8
ENDBRANCH   1   7
BRANCH   2  20
ATOM     20  O   UNL     1     -10.223 -15.317 -43.601  1.00  0.00    -0.385 OA
ATOM     21  H   UNL     1     -10.441 -16.059 -43.003  1.00  0.00    +0.211 HD
ENDBRANCH   2  20
BRANCH   3  22
ATOM     22  O   UNL     1      -9.072 -13.598 -45.455  1.00  0.00    -0.387 OA
ATOM     23  H   UNL     1      -8.554 -12.836 -45.122  1.00  0.00    +0.211 HD
ENDBRANCH   3  22
BRANCH   5  24
ATOM     24  C   UNL     1      -7.779 -17.726 -46.987  1.00  0.00    +0.220 C 
BRANCH  24  25
ATOM     25  O   UNL     1      -9.110 -17.268 -47.214  1.00  0.00    -0.245 OA
BRANCH  25  26
ATOM     26  S   UNL     1     -10.235 -18.372 -47.602  1.00  0.00    +0.397 S 
ATOM     27  O   UNL     1      -9.660 -19.697 -47.563  1.00  0.00    -0.169 OA
ATOM     28  O   UNL     1     -10.973 -17.885 -48.745  1.00  0.00    -0.169 OA
BRANCH  26  29
ATOM     29  O   UNL     1     -11.262 -18.248 -46.369  1.00  0.00    -0.264 OA
ATOM     30  H   UNL     1     -12.126 -18.585 -46.683  1.00  0.00    +0.236 HD
ENDBRANCH  26  29
ENDBRANCH  25  26
ENDBRANCH  24  25
ENDBRANCH   5  24
BRANCH   4  31
ATOM     31  O   UNL     1      -8.139 -15.036 -47.399  1.00  0.00    -0.387 OA
ATOM     32  H   UNL     1      -7.445 -15.166 -48.084  1.00  0.00    +0.211 HD
ENDBRANCH   4  31
TORSDOF 11
ENDMDL
MODEL 4
REMARK VINA RESULT:    -5.779      1.744      2.146
REMARK INTER + INTRA:          -9.722
REMARK INTER:                  -8.167
REMARK INTRA:                  -1.555
REMARK UNBOUND:                -1.241
REMARK SMILES O=S(=O)(O)OC[C@@H]1O[C@H](O[C@H]2[C@@H]3OC[C@H]2O[C@@H](O)[C@H]3O)[C@@H](O)[C@H](O)[C@@H]1O
REMARK SMILES IDX 9 1 21 2 23 3 25 4 7 5 8 6 10 7 11 8 14 9 15 10 13 11 16 12
REMARK SMILES IDX 12 13 17 14 19 15 18 16 20 18 22 20 24 22 6 24 5 25 2 26
REMARK SMILES IDX 1 27 3 28 4 29 26 31
REMARK H PARENT 18 17 20 19 22 21 24 23 4 30 26 32
ROOT
ATOM      1  C   UNL     1     -11.051   3.419   8.947  1.00  0.00    +0.282 C 
ATOM      2  C   UNL     1      -9.820   2.653   8.425  1.00  0.00    +0.202 C 
ATOM      3  C   UNL     1      -9.403   3.272   7.102  1.00  0.00    +0.179 C 
ATOM      4  C   UNL     1      -8.946   4.714   7.340  1.00  0.00    +0.177 C 
ATOM      5  C   UNL     1      -9.778   5.439   8.425  1.00  0.00    +0.180 C 
ATOM      6  O   UNL     1     -11.057   4.813   8.644  1.00  0.00    -0.341 OA
ENDROOT
BRANCH   1   7
ATOM      7  O   UNL     1     -11.174   3.148  10.346  1.00  0.00    -0.341 OA
BRANCH   7   8
ATOM      8  C   UNL     1     -12.392   2.490  10.679  1.00  0.00    +0.184 C 
ATOM      9  C   UNL     1     -14.082   1.879  12.185  1.00  0.00    +0.195 C 
ATOM     10  C   UNL     1     -13.059   2.992  11.950  1.00  0.00    +0.179 C 
ATOM     11  O   UNL     1     -13.461   0.662  11.695  1.00  0.00    -0.370 OA
ATOM     12  O   UNL     1     -12.094   3.112  13.011  1.00  0.00    -0.342 OA
ATOM     13  C   UNL     1     -12.182   1.049  11.129  1.00  0.00    +0.184 C 
ATOM     14  C   UNL     1     -11.418   1.917  13.386  1.00  0.00    +0.279 C 
ATOM     15  C   UNL     1     -11.086   0.982  12.201  1.00  0.00    +0.202 C 
BRANCH  14  16
ATOM     16  O   UNL     1     -12.205   1.230  14.355  1.00  0.00    -0.366 OA
ATOM     17  H   UNL     1     -12.874   0.753  13.832  1.00  0.00    +0.213 HD
ENDBRANCH  14  16
BRANCH  15  18
ATOM     18  O   UNL     1     -10.911  -0.368  12.651  1.00  0.00    -0.385 OA
ATOM     19  H   UNL     1     -10.434  -0.803  11.912  1.00  0.00    +0.211 HD
ENDBRANCH  15  18
ENDBRANCH   7   8
ENDBRANCH   1   7
BRANCH   2  20
ATOM     20  O   UNL     1     -10.115   1.260   8.223  1.00  0.00    -0.385 OA
ATOM     21  H   UNL     1     -10.351   1.168   7.279  1.00  0.00    +0.211 HD
ENDBRANCH   2  20
BRANCH   3  22
ATOM     22  O   UNL     1      -8.323   2.524   6.517  1.00  0.00    -0.387 OA
ATOM     23  H   UNL     1      -7.514   2.880   6.940  1.00  0.00    +0.211 HD
ENDBRANCH   3  22
BRANCH   5  24
ATOM     24  C   UNL     1      -9.036   5.704   9.747  1.00  0.00    +0.220 C 
BRANCH  24  25
ATOM     25  O   UNL     1      -9.317   7.038  10.164  1.00  0.00    -0.245 OA
BRANCH  25  26
ATOM     26  S   UNL     1     -10.471   7.252  11.286  1.00  0.00    +0.397 S 
ATOM     27  O   UNL     1     -11.544   8.055  10.744  1.00  0.00    -0.169 OA
ATOM     28  O   UNL     1      -9.830   7.571  12.542  1.00  0.00    -0.169 OA
BRANCH  26  29
ATOM     29  O   UNL     1     -11.030   5.755  11.480  1.00  0.00    -0.264 OA
ATOM     30  H   UNL     1     -10.256   5.157  11.460  1.00  0.00    +0.236 HD
ENDBRANCH  26  29
ENDBRANCH  25  26
ENDBRANCH  24  25
ENDBRANCH   5  24
BRANCH   4  31
ATOM     31  O   UNL     1      -7.550   4.717   7.661  1.00  0.00    -0.387 OA
ATOM     32  H   UNL     1      -7.112   5.111   6.874  1.00  0.00    +0.211 HD
ENDBRANCH   4  31
TORSDOF 11
ENDMDL
MODEL 5
REMARK VINA RESULT:    -5.682      1.705      2.216
REMARK INTER + INTRA:          -9.580
REMARK INTER:                  -8.522
REMARK INTRA:                  -1.058
REMARK UNBOUND:                -1.241
REMARK SMILES O=S(=O)(O)OC[C@@H]1O[C@H](O[C@H]2[C@@H]3OC[C@H]2O[C@@H](O)[C@H]3O)[C@@H](O)[C@H](O)[C@@H]1O
REMARK SMILES IDX 9 1 21 2 23 3 25 4 7 5 8 6 10 7 11 8 14 9 15 10 13 11 16 12
REMARK SMILES IDX 12 13 17 14 19 15 18 16 20 18 22 20 24 22 6 24 5 25 2 26
REMARK SMILES IDX 1 27 3 28 4 29 26 31
REMARK H PARENT 18 17 20 19 22 21 24 23 4 30 26 32
ROOT
ATOM      1  C   UNL     1     -11.974   4.080   9.560  1.00  0.00    +0.282 C 
ATOM      2  C   UNL     1     -11.716   3.482   8.163  1.00  0.00    +0.202 C 
ATOM      3  C   UNL     1     -11.651   4.625   7.164  1.00  0.00    +0.179 C 
ATOM      4  C   UNL     1     -10.444   5.511   7.485  1.00  0.00    +0.177 C 
ATOM      5  C   UNL     1     -10.193   5.658   9.005  1.00  0.00    +0.180 C 
ATOM      6  O   UNL     1     -11.362   5.348   9.787  1.00  0.00    -0.341 OA
ENDROOT
BRANCH   1   7
ATOM      7  O   UNL     1     -11.606   3.097  10.532  1.00  0.00    -0.341 OA
BRANCH   7   8
ATOM      8  C   UNL     1     -12.725   2.402  11.071  1.00  0.00    +0.184 C 
ATOM      9  C   UNL     1     -14.086   1.715  12.852  1.00  0.00    +0.195 C 
ATOM     10  C   UNL     1     -13.147   2.857  12.460  1.00  0.00    +0.179 C 
ATOM     11  O   UNL     1     -13.548   0.525  12.219  1.00  0.00    -0.370 OA
ATOM     12  O   UNL     1     -11.999   2.972  13.321  1.00  0.00    -0.342 OA
ATOM     13  C   UNL     1     -12.409   0.955  11.430  1.00  0.00    +0.184 C 
ATOM     14  C   UNL     1     -11.242   1.784  13.524  1.00  0.00    +0.279 C 
ATOM     15  C   UNL     1     -11.127   0.887  12.272  1.00  0.00    +0.202 C 
BRANCH  14  16
ATOM     16  O   UNL     1     -11.818   1.055  14.605  1.00  0.00    -0.366 OA
ATOM     17  H   UNL     1     -12.741   1.364  14.645  1.00  0.00    +0.213 HD
ENDBRANCH  14  16
BRANCH  15  18
ATOM     18  O   UNL     1     -10.845  -0.470  12.640  1.00  0.00    -0.385 OA
ATOM     19  H   UNL     1      -9.960  -0.422  13.060  1.00  0.00    +0.211 HD
ENDBRANCH  15  18
ENDBRANCH   7   8
ENDBRANCH   1   7
BRANCH   2  20
ATOM     20  O   UNL     1     -12.763   2.576   7.778  1.00  0.00    -0.385 OA
ATOM     21  H   UNL     1     -12.341   1.700   7.682  1.00  0.00    +0.211 HD
ENDBRANCH   2  20
BRANCH   3  22
ATOM     22  O   UNL     1     -11.520   4.114   5.827  1.00  0.00    -0.387 OA
ATOM     23  H   UNL     1     -12.423   4.168   5.448  1.00  0.00    +0.211 HD
ENDBRANCH   3  22
BRANCH   5  24
ATOM     24  C   UNL     1      -8.942   4.933   9.533  1.00  0.00    +0.220 C 
BRANCH  24  25
ATOM     25  O   UNL     1      -8.031   5.908  10.035  1.00  0.00    -0.245 OA
BRANCH  25  26
ATOM     26  S   UNL     1      -6.776   6.326   9.095  1.00  0.00    +0.397 S 
ATOM     27  O   UNL     1      -6.580   5.334   8.062  1.00  0.00    -0.169 OA
ATOM     28  O   UNL     1      -5.698   6.772   9.949  1.00  0.00    -0.169 OA
BRANCH  26  29
ATOM     29  O   UNL     1      -7.320   7.667   8.389  1.00  0.00    -0.264 OA
ATOM     30  H   UNL     1      -6.582   8.029   7.858  1.00  0.00    +0.236 HD
ENDBRANCH  26  29
ENDBRANCH  25  26
ENDBRANCH  24  25
ENDBRANCH   5  24
BRANCH   4  31
ATOM     31  O   UNL     1      -9.291   4.995   6.812  1.00  0.00    -0.387 OA
ATOM     32  H   UNL     1      -8.695   5.770   6.704  1.00  0.00    +0.211 HD
ENDBRANCH   4  31
TORSDOF 11
ENDMDL
MODEL 6
REMARK VINA RESULT:    -5.633     55.754     58.567
REMARK INTER + INTRA:          -9.509
REMARK INTER:                  -8.282
REMARK INTRA:                  -1.227
REMARK UNBOUND:                -1.241
REMARK SMILES O=S(=O)(O)OC[C@@H]1O[C@H](O[C@H]2[C@@H]3OC[C@H]2O[C@@H](O)[C@H]3O)[C@@H](O)[C@H](O)[C@@H]1O
REMARK SMILES IDX 9 1 21 2 23 3 25 4 7 5 8 6 10 7 11 8 14 9 15 10 13 11 16 12
REMARK SMILES IDX 12 13 17 14 19 15 18 16 20 18 22 20 24 22 6 24 5 25 2 26
REMARK SMILES IDX 1 27 3 28 4 29 26 31
REMARK H PARENT 18 17 20 19 22 21 24 23 4 30 26 32
ROOT
ATOM      1  C   UNL     1     -10.043 -20.249 -44.785  1.00  0.00    +0.282 C 
ATOM      2  C   UNL     1      -9.535 -20.438 -46.227  1.00  0.00    +0.202 C 
ATOM      3  C   UNL     1     -10.556 -19.829 -47.173  1.00  0.00    +0.179 C 
ATOM      4  C   UNL     1     -10.629 -18.318 -46.934  1.00  0.00    +0.177 C 
ATOM      5  C   UNL     1     -10.476 -17.936 -45.443  1.00  0.00    +0.180 C 
ATOM      6  O   UNL     1     -10.764 -19.039 -44.562  1.00  0.00    -0.341 OA
ENDROOT
BRANCH   1   7
ATOM      7  O   UNL     1      -8.928 -20.410 -43.903  1.00  0.00    -0.341 OA
BRANCH   7   8
ATOM      8  C   UNL     1      -9.069 -21.524 -43.027  1.00  0.00    +0.184 C 
ATOM      9  C   UNL     1      -9.558 -22.485 -40.946  1.00  0.00    +0.195 C 
ATOM     10  C   UNL     1      -9.907 -21.256 -41.787  1.00  0.00    +0.179 C 
ATOM     11  O   UNL     1      -8.183 -22.811 -41.274  1.00  0.00    -0.370 OA
ATOM     12  O   UNL     1      -9.514 -20.015 -41.174  1.00  0.00    -0.342 OA
ATOM     13  C   UNL     1      -7.773 -21.882 -42.310  1.00  0.00    +0.184 C 
ATOM     14  C   UNL     1      -8.160 -19.926 -40.743  1.00  0.00    +0.279 C 
ATOM     15  C   UNL     1      -7.152 -20.627 -41.681  1.00  0.00    +0.202 C 
BRANCH  14  16
ATOM     16  O   UNL     1      -8.064 -20.458 -39.424  1.00  0.00    -0.366 OA
ATOM     17  H   UNL     1      -7.573 -21.292 -39.533  1.00  0.00    +0.213 HD
ENDBRANCH  14  16
BRANCH  15  18
ATOM     18  O   UNL     1      -5.951 -20.966 -40.976  1.00  0.00    -0.385 OA
ATOM     19  H   UNL     1      -5.393 -20.163 -41.060  1.00  0.00    +0.211 HD
ENDBRANCH  15  18
ENDBRANCH   7   8
ENDBRANCH   1   7
BRANCH   2  20
ATOM     20  O   UNL     1      -9.366 -21.830 -46.547  1.00  0.00    -0.385 OA
ATOM     21  H   UNL     1      -8.532 -22.106 -46.118  1.00  0.00    +0.211 HD
ENDBRANCH   2  20
BRANCH   3  22
ATOM     22  O   UNL     1     -10.182 -20.074 -48.540  1.00  0.00    -0.387 OA
ATOM     23  H   UNL     1      -9.925 -21.020 -48.563  1.00  0.00    +0.211 HD
ENDBRANCH   3  22
BRANCH   5  24
ATOM     24  C   UNL     1      -9.150 -17.243 -45.079  1.00  0.00    +0.220 C 
BRANCH  24  25
ATOM     25  O   UNL     1      -9.347 -15.832 -45.134  1.00  0.00    -0.245 OA
BRANCH  25  26
ATOM     26  S   UNL     1      -8.162 -14.927 -45.775  1.00  0.00    +0.397 S 
ATOM     27  O   UNL     1      -7.889 -15.356 -47.128  1.00  0.00    -0.169 OA
ATOM     28  O   UNL     1      -7.117 -14.782 -44.787  1.00  0.00    -0.169 OA
BRANCH  26  29
ATOM     29  O   UNL     1      -8.855 -13.476 -45.853  1.00  0.00    -0.264 OA
ATOM     30  H   UNL     1      -9.294 -13.416 -46.726  1.00  0.00    +0.236 HD
ENDBRANCH  26  29
ENDBRANCH  25  26
ENDBRANCH  24  25
ENDBRANCH   5  24
BRANCH   4  31
ATOM     31  O   UNL     1      -9.645 -17.667 -47.745  1.00  0.00    -0.387 OA
ATOM     32  H   UNL     1     -10.072 -16.829 -48.034  1.00  0.00    +0.211 HD
ENDBRANCH   4  31
TORSDOF 11
ENDMDL
MODEL 7
REMARK VINA RESULT:    -5.544      3.854      6.316
REMARK INTER + INTRA:          -9.378
REMARK INTER:                  -8.319
REMARK INTRA:                  -1.059
REMARK UNBOUND:                -1.241
REMARK SMILES O=S(=O)(O)OC[C@@H]1O[C@H](O[C@H]2[C@@H]3OC[C@H]2O[C@@H](O)[C@H]3O)[C@@H](O)[C@H](O)[C@@H]1O
REMARK SMILES IDX 9 1 21 2 23 3 25 4 7 5 8 6 10 7 11 8 14 9 15 10 13 11 16 12
REMARK SMILES IDX 12 13 17 14 19 15 18 16 20 18 22 20 24 22 6 24 5 25 2 26
REMARK SMILES IDX 1 27 3 28 4 29 26 31
REMARK H PARENT 18 17 20 19 22 21 24 23 4 30 26 32
ROOT
ATOM      1  C   UNL     1     -10.421   2.278   6.528  1.00  0.00    +0.282 C 
ATOM      2  C   UNL     1     -10.647   2.967   7.888  1.00  0.00    +0.202 C 
ATOM      3  C   UNL     1      -9.297   3.135   8.564  1.00  0.00    +0.179 C 
ATOM      4  C   UNL     1      -8.430   4.086   7.735  1.00  0.00    +0.177 C 
ATOM      5  C   UNL     1      -8.633   3.913   6.211  1.00  0.00    +0.180 C 
ATOM      6  O   UNL     1      -9.204   2.634   5.876  1.00  0.00    -0.341 OA
ENDROOT
BRANCH   1   7
ATOM      7  O   UNL     1     -11.580   2.511   5.722  1.00  0.00    -0.341 OA
BRANCH   7   8
ATOM      8  C   UNL     1     -11.499   1.891   4.442  1.00  0.00    +0.184 C 
ATOM      9  C   UNL     1     -11.547   1.944   2.099  1.00  0.00    +0.195 C 
ATOM     10  C   UNL     1     -11.216   2.844   3.291  1.00  0.00    +0.179 C 
ATOM     11  O   UNL     1     -12.617   1.073   2.546  1.00  0.00    -0.370 OA
ATOM     12  O   UNL     1     -12.062   4.005   3.380  1.00  0.00    -0.342 OA
ATOM     13  C   UNL     1     -12.847   1.383   3.945  1.00  0.00    +0.184 C 
ATOM     14  C   UNL     1     -13.465   3.767   3.339  1.00  0.00    +0.279 C 
ATOM     15  C   UNL     1     -13.909   2.483   4.075  1.00  0.00    +0.202 C 
BRANCH  14  16
ATOM     16  O   UNL     1     -13.883   3.727   1.977  1.00  0.00    -0.366 OA
ATOM     17  H   UNL     1     -14.831   3.507   2.018  1.00  0.00    +0.213 HD
ENDBRANCH  14  16
BRANCH  15  18
ATOM     18  O   UNL     1     -15.171   2.019   3.576  1.00  0.00    -0.385 OA
ATOM     19  H   UNL     1     -15.581   1.574   4.348  1.00  0.00    +0.211 HD
ENDBRANCH  15  18
ENDBRANCH   7   8
ENDBRANCH   1   7
BRANCH   2  20
ATOM     20  O   UNL     1     -11.507   2.187   8.736  1.00  0.00    -0.385 OA
ATOM     21  H   UNL     1     -12.371   2.643   8.738  1.00  0.00    +0.211 HD
ENDBRANCH   2  20
BRANCH   3  22
ATOM     22  O   UNL     1      -9.462   3.675   9.886  1.00  0.00    -0.387 OA
ATOM     23  H   UNL     1     -10.294   4.192   9.843  1.00  0.00    +0.211 HD
ENDBRANCH   3  22
BRANCH   5  24
ATOM     24  C   UNL     1      -9.373   5.071   5.515  1.00  0.00    +0.220 C 
BRANCH  24  25
ATOM     25  O   UNL     1      -8.405   5.977   4.992  1.00  0.00    -0.245 OA
BRANCH  25  26
ATOM     26  S   UNL     1      -8.603   6.500   3.469  1.00  0.00    +0.397 S 
ATOM     27  O   UNL     1      -9.580   7.565   3.435  1.00  0.00    -0.169 OA
ATOM     28  O   UNL     1      -8.690   5.348   2.601  1.00  0.00    -0.169 OA
BRANCH  26  29
ATOM     29  O   UNL     1      -7.164   7.148   3.148  1.00  0.00    -0.264 OA
ATOM     30  H   UNL     1      -7.328   8.043   2.789  1.00  0.00    +0.236 HD
ENDBRANCH  26  29
ENDBRANCH  25  26
ENDBRANCH  24  25
ENDBRANCH   5  24
BRANCH   4  31
ATOM     31  O   UNL     1      -8.686   5.434   8.147  1.00  0.00    -0.387 OA
ATOM     32  H   UNL     1      -8.197   5.534   8.995  1.00  0.00    +0.211 HD
ENDBRANCH   4  31
TORSDOF 11
ENDMDL
MODEL 8
REMARK VINA RESULT:    -5.464      4.458      6.433
REMARK INTER + INTRA:          -9.261
REMARK INTER:                  -8.090
REMARK INTRA:                  -1.171
REMARK UNBOUND:                -1.241
REMARK SMILES O=S(=O)(O)OC[C@@H]1O[C@H](O[C@H]2[C@@H]3OC[C@H]2O[C@@H](O)[C@H]3O)[C@@H](O)[C@H](O)[C@@H]1O
REMARK SMILES IDX 9 1 21 2 23 3 25 4 7 5 8 6 10 7 11 8 14 9 15 10 13 11 16 12
REMARK SMILES IDX 12 13 17 14 19 15 18 16 20 18 22 20 24 22 6 24 5 25 2 26
REMARK SMILES IDX 1 27 3 28 4 29 26 31
REMARK H PARENT 18 17 20 19 22 21 24 23 4 30 26 32
ROOT
ATOM      1  C   UNL     1     -10.302   6.201   5.165  1.00  0.00    +0.282 C 
ATOM      2  C   UNL     1      -9.201   5.960   4.114  1.00  0.00    +0.202 C 
ATOM      3  C   UNL     1      -9.871   5.727   2.771  1.00  0.00    +0.179 C 
ATOM      4  C   UNL     1     -10.605   7.001   2.344  1.00  0.00    +0.177 C 
ATOM      5  C   UNL     1     -11.257   7.748   3.532  1.00  0.00    +0.180 C 
ATOM      6  O   UNL     1     -11.449   6.895   4.677  1.00  0.00    -0.341 OA
ENDROOT
BRANCH   1   7
ATOM      7  O   UNL     1      -9.698   6.838   6.294  1.00  0.00    -0.341 OA
BRANCH   7   8
ATOM      8  C   UNL     1     -10.574   6.935   7.412  1.00  0.00    +0.184 C 
ATOM      9  C   UNL     1     -11.261   7.888   9.440  1.00  0.00    +0.195 C 
ATOM     10  C   UNL     1     -10.505   8.256   8.163  1.00  0.00    +0.179 C 
ATOM     11  O   UNL     1     -10.970   6.488   9.684  1.00  0.00    -0.370 OA
ATOM     12  O   UNL     1      -9.135   8.628   8.398  1.00  0.00    -0.342 OA
ATOM     13  C   UNL     1     -10.159   6.033   8.570  1.00  0.00    +0.184 C 
ATOM     14  C   UNL     1      -8.356   7.715   9.165  1.00  0.00    +0.279 C 
ATOM     15  C   UNL     1      -8.670   6.229   8.885  1.00  0.00    +0.202 C 
BRANCH  14  16
ATOM     16  O   UNL     1      -8.538   8.008  10.548  1.00  0.00    -0.366 OA
ATOM     17  H   UNL     1      -9.433   7.681  10.752  1.00  0.00    +0.213 HD
ENDBRANCH  14  16
BRANCH  15  18
ATOM     18  O   UNL     1      -8.284   5.408   9.995  1.00  0.00    -0.385 OA
ATOM     19  H   UNL     1      -8.910   5.663  10.707  1.00  0.00    +0.211 HD
ENDBRANCH  15  18
ENDBRANCH   7   8
ENDBRANCH   1   7
BRANCH   2  20
ATOM     20  O   UNL     1      -8.399   4.815   4.447  1.00  0.00    -0.385 OA
ATOM     21  H   UNL     1      -7.475   5.064   4.246  1.00  0.00    +0.211 HD
ENDBRANCH   2  20
BRANCH   3  22
ATOM     22  O   UNL     1      -8.891   5.389   1.774  1.00  0.00    -0.387 OA
ATOM     23  H   UNL     1      -8.554   6.252   1.452  1.00  0.00    +0.211 HD
ENDBRANCH   3  22
BRANCH   5  24
ATOM     24  C   UNL     1     -10.583   9.079   3.915  1.00  0.00    +0.220 C 
BRANCH  24  25
ATOM     25  O   UNL     1     -10.911  10.052   2.926  1.00  0.00    -0.245 OA
BRANCH  25  26
ATOM     26  S   UNL     1      -9.790  11.170   2.564  1.00  0.00    +0.397 S 
ATOM     27  O   UNL     1     -10.155  11.859   1.347  1.00  0.00    -0.169 OA
ATOM     28  O   UNL     1      -8.484  10.581   2.754  1.00  0.00    -0.169 OA
BRANCH  26  29
ATOM     29  O   UNL     1      -9.951  12.211   3.782  1.00  0.00    -0.264 OA
ATOM     30  H   UNL     1     -10.618  11.835   4.392  1.00  0.00    +0.236 HD
ENDBRANCH  26  29
ENDBRANCH  25  26
ENDBRANCH  24  25
ENDBRANCH   5  24
BRANCH   4  31
ATOM     31  O   UNL     1      -9.700   7.847   1.627  1.00  0.00    -0.387 OA
ATOM     32  H   UNL     1      -9.771   8.723   2.069  1.00  0.00    +0.211 HD
ENDBRANCH   4  31
TORSDOF 11
ENDMDL
MODEL 9
REMARK VINA RESULT:    -5.322      6.339      9.056
REMARK INTER + INTRA:          -9.052
REMARK INTER:                  -8.000
REMARK INTRA:                  -1.053
REMARK UNBOUND:                -1.241
REMARK SMILES O=S(=O)(O)OC[C@@H]1O[C@H](O[C@H]2[C@@H]3OC[C@H]2O[C@@H](O)[C@H]3O)[C@@H](O)[C@H](O)[C@@H]1O
REMARK SMILES IDX 9 1 21 2 23 3 25 4 7 5 8 6 10 7 11 8 14 9 15 10 13 11 16 12
REMARK SMILES IDX 12 13 17 14 19 15 18 16 20 18 22 20 24 22 6 24 5 25 2 26
REMARK SMILES IDX 1 27 3 28 4 29 26 31
REMARK H PARENT 18 17 20 19 22 21 24 23 4 30 26 32
ROOT
ATOM      1  C   UNL     1     -11.634   6.500   0.970  1.00  0.00    +0.282 C 
ATOM      2  C   UNL     1     -10.586   7.475   0.400  1.00  0.00    +0.202 C 
ATOM      3  C   UNL     1     -10.671   8.773   1.184  1.00  0.00    +0.179 C 
ATOM      4  C   UNL     1     -10.272   8.512   2.640  1.00  0.00    +0.177 C 
ATOM      5  C   UNL     1     -10.758   7.138   3.160  1.00  0.00    +0.180 C 
ATOM      6  O   UNL     1     -11.844   6.608   2.376  1.00  0.00    -0.341 OA
ENDROOT
BRANCH   1   7
ATOM      7  O   UNL     1     -11.273   5.179   0.555  1.00  0.00    -0.341 OA
BRANCH   7   8
ATOM      8  C   UNL     1     -12.389   4.412   0.114  1.00  0.00    +0.184 C 
ATOM      9  C   UNL     1     -14.010   2.743   0.401  1.00  0.00    +0.195 C 
ATOM     10  C   UNL     1     -13.158   3.712   1.223  1.00  0.00    +0.179 C 
ATOM     11  O   UNL     1     -13.202   2.385  -0.750  1.00  0.00    -0.370 OA
ATOM     12  O   UNL     1     -12.252   3.050   2.123  1.00  0.00    -0.342 OA
ATOM     13  C   UNL     1     -11.980   3.161  -0.656  1.00  0.00    +0.184 C 
ATOM     14  C   UNL     1     -11.415   2.049   1.553  1.00  0.00    +0.279 C 
ATOM     15  C   UNL     1     -10.916   2.381   0.129  1.00  0.00    +0.202 C 
BRANCH  14  16
ATOM     16  O   UNL     1     -12.118   0.809   1.556  1.00  0.00    -0.366 OA
ATOM     17  H   UNL     1     -12.262   0.607   0.614  1.00  0.00    +0.213 HD
ENDBRANCH  14  16
BRANCH  15  18
ATOM     18  O   UNL     1     -10.555   1.186  -0.576  1.00  0.00    -0.385 OA
ATOM     19  H   UNL     1     -11.050   1.250  -1.421  1.00  0.00    +0.211 HD
ENDBRANCH  15  18
ENDBRANCH   7   8
ENDBRANCH   1   7
BRANCH   2  20
ATOM     20  O   UNL     1     -10.824   7.748  -0.992  1.00  0.00    -0.385 OA
ATOM     21  H   UNL     1     -10.439   6.996  -1.484  1.00  0.00    +0.211 HD
ENDBRANCH   2  20
BRANCH   3  22
ATOM     22  O   UNL     1      -9.787   9.758   0.621  1.00  0.00    -0.387 OA
ATOM     23  H   UNL     1      -9.044   9.241   0.245  1.00  0.00    +0.211 HD
ENDBRANCH   3  22
BRANCH   5  24
ATOM     24  C   UNL     1      -9.648   6.094   3.381  1.00  0.00    +0.220 C 
BRANCH  24  25
ATOM     25  O   UNL     1      -8.946   6.427   4.576  1.00  0.00    -0.245 OA
BRANCH  25  26
ATOM     26  S   UNL     1      -9.019   5.380   5.814  1.00  0.00    +0.397 S 
ATOM     27  O   UNL     1      -8.435   4.116   5.427  1.00  0.00    -0.169 OA
ATOM     28  O   UNL     1     -10.333   5.471   6.408  1.00  0.00    -0.169 OA
BRANCH  26  29
ATOM     29  O   UNL     1      -8.035   6.064   6.889  1.00  0.00    -0.264 OA
ATOM     30  H   UNL     1      -8.252   5.677   7.761  1.00  0.00    +0.236 HD
ENDBRANCH  26  29
ENDBRANCH  25  26
ENDBRANCH  24  25
ENDBRANCH   5  24
BRANCH   4  31
ATOM     31  O   UNL     1      -8.853   8.649   2.769  1.00  0.00    -0.387 OA
ATOM     32  H   UNL     1      -8.491   8.339   1.909  1.00  0.00    +0.211 HD
ENDBRANCH   4  31
TORSDOF 11
ENDMDL
