MODEL 1
REMARK VINA RESULT:    -6.647      0.000      0.000
REMARK INTER + INTRA:         -11.053
REMARK INTER:                  -9.756
REMARK INTRA:                  -1.297
REMARK UNBOUND:                -1.297
REMARK SMILES O=S(=O)(O)OC[C@@H]1O[C@H](O[C@H]2[C@@H]3OC[C@H]2O[C@@H](O)[C@H]3O)[C@@H](O)[C@H](O)[C@@H]1O
REMARK SMILES IDX 9 1 21 2 23 3 25 4 7 5 8 6 10 7 11 8 14 9 15 10 13 11 16 12
REMARK SMILES IDX 12 13 17 14 19 15 18 16 20 18 22 20 24 22 6 24 5 25 2 26
REMARK SMILES IDX 1 27 3 28 4 29 26 31
REMARK H PARENT 18 17 20 19 22 21 24 23 4 30 26 32
ROOT
ATOM      1  C   UNL     1      -9.095   7.521   3.899  1.00  0.00    +0.282 C 
ATOM      2  C   UNL     1     -10.033   8.097   4.978  1.00  0.00    +0.202 C 
ATOM      3  C   UNL     1     -10.046   7.138   6.156  1.00  0.00    +0.179 C 
ATOM      4  C   UNL     1      -8.649   7.085   6.781  1.00  0.00    +0.177 C 
ATOM      5  C   UNL     1      -7.515   7.171   5.730  1.00  0.00    +0.180 C 
ATOM      6  O   UNL     1      -7.964   6.816   4.409  1.00  0.00    -0.341 OA
ENDROOT
BRANCH   1   7
ATOM      7  O   UNL     1      -8.741   8.587   3.013  1.00  0.00    -0.341 OA
BRANCH   7   8
ATOM      8  C   UNL     1      -7.817   8.187   2.006  1.00  0.00    +0.184 C 
ATOM      9  C   UNL     1      -5.947   8.545   0.639  1.00  0.00    +0.195 C 
ATOM     10  C   UNL     1      -6.509   8.963   1.999  1.00  0.00    +0.179 C 
ATOM     11  O   UNL     1      -7.098   8.355  -0.224  1.00  0.00    -0.370 OA
ATOM     12  O   UNL     1      -6.762  10.376   2.101  1.00  0.00    -0.342 OA
ATOM     13  C   UNL     1      -8.273   8.565   0.601  1.00  0.00    +0.184 C 
ATOM     14  C   UNL     1      -7.550  10.952   1.064  1.00  0.00    +0.279 C 
ATOM     15  C   UNL     1      -8.692  10.042   0.560  1.00  0.00    +0.202 C 
BRANCH  14  16
ATOM     16  O   UNL     1      -6.691  11.315  -0.014  1.00  0.00    -0.366 OA
ATOM     17  H   UNL     1      -7.297  11.542  -0.743  1.00  0.00    +0.213 HD
ENDBRANCH  14  16
BRANCH  15  18
ATOM     18  O   UNL     1      -9.088  10.409  -0.768  1.00  0.00    -0.385 OA
ATOM     19  H   UNL     1      -9.696  11.167  -0.632  1.00  0.00    +0.211 HD
ENDBRANCH  15  18
ENDBRANCH   7   8
ENDBRANCH   1   7
BRANCH   2  20
ATOM     20  O   UNL     1     -11.373   8.252   4.480  1.00  0.00    -0.385 OA
ATOM     21  H   UNL     1     -11.893   7.523   4.873  1.00  0.00    +0.211 HD
ENDBRANCH   2  20
BRANCH   3  22
ATOM     22  O   UNL     1     -10.991   7.574   7.147  1.00  0.00    -0.387 OA
ATOM     23  H   UNL     1     -10.728   8.495   7.356  1.00  0.00    +0.211 HD
ENDBRANCH   3  22
BRANCH   5  24
ATOM     24  C   UNL     1      -6.724   8.492   5.732  1.00  0.00    +0.220 C 
BRANCH  24  25
ATOM     25  O   UNL     1      -5.605   8.348   6.603  1.00  0.00    -0.245 OA
BRANCH  25  26
ATOM     26  S   UNL     1      -5.205   9.614   7.537  1.00  0.00    +0.397 S 
ATOM     27  O   UNL     1      -5.144  10.817   6.739  1.00  0.00    -0.169 OA
ATOM     28  O   UNL     1      -4.125   9.212   8.409  1.00  0.00    -0.169 OA
BRANCH  26  29
ATOM     29  O   UNL     1      -6.488   9.733   8.503  1.00  0.00    -0.264 OA
ATOM     30  H   UNL     1      -6.581  10.679   8.738  1.00  0.00    +0.236 HD
ENDBRANCH  26  29
ENDBRANCH  25  26
ENDBRANCH  24  25
ENDBRANCH   5  24
BRANCH   4  31
ATOM     31  O   UNL     1      -8.534   8.122   7.761  1.00  0.00    -0.387 OA
ATOM     32  H   UNL     1      -9.354   8.656   7.660  1.00  0.00    +0.211 HD
ENDBRANCH   4  31
TORSDOF 11
ENDMDL
MODEL 2
REMARK VINA RESULT:    -6.635      2.508      5.863
REMARK INTER + INTRA:         -11.036
REMARK INTER:                  -9.217
REMARK INTRA:                  -1.819
REMARK UNBOUND:                -1.297
REMARK SMILES O=S(=O)(O)OC[C@@H]1O[C@H](O[C@H]2[C@@H]3OC[C@H]2O[C@@H](O)[C@H]3O)[C@@H](O)[C@H](O)[C@@H]1O
REMARK SMILES IDX 9 1 21 2 23 3 25 4 7 5 8 6 10 7 11 8 14 9 15 10 13 11 16 12
REMARK SMILES IDX 12 13 17 14 19 15 18 16 20 18 22 20 24 22 6 24 5 25 2 26
REMARK SMILES IDX 1 27 3 28 4 29 26 31
REMARK H PARENT 18 17 20 19 22 21 24 23 4 30 26 32
ROOT
ATOM      1  C   UNL     1     -10.835   9.271   3.539  1.00  0.00    +0.282 C 
ATOM      2  C   UNL     1     -11.680   7.984   3.473  1.00  0.00    +0.202 C 
ATOM      3  C   UNL     1     -12.484   8.010   2.185  1.00  0.00    +0.179 C 
ATOM      4  C   UNL     1     -11.527   7.960   0.990  1.00  0.00    +0.177 C 
ATOM      5  C   UNL     1     -10.224   8.760   1.229  1.00  0.00    +0.180 C 
ATOM      6  O   UNL     1     -10.365   9.739   2.276  1.00  0.00    -0.341 OA
ENDROOT
BRANCH   1   7
ATOM      7  O   UNL     1      -9.784   9.057   4.485  1.00  0.00    -0.341 OA
BRANCH   7   8
ATOM      8  C   UNL     1      -9.953   9.810   5.682  1.00  0.00    +0.184 C 
ATOM      9  C   UNL     1      -9.126  11.003   7.522  1.00  0.00    +0.195 C 
ATOM     10  C   UNL     1      -8.744  10.640   6.086  1.00  0.00    +0.179 C 
ATOM     11  O   UNL     1      -9.883   9.874   8.029  1.00  0.00    -0.370 OA
ATOM     12  O   UNL     1      -7.542   9.854   5.998  1.00  0.00    -0.342 OA
ATOM     13  C   UNL     1     -10.012   8.936   6.929  1.00  0.00    +0.184 C 
ATOM     14  C   UNL     1      -7.491   8.687   6.812  1.00  0.00    +0.279 C 
ATOM     15  C   UNL     1      -8.840   7.945   6.937  1.00  0.00    +0.202 C 
BRANCH  14  16
ATOM     16  O   UNL     1      -7.003   9.051   8.101  1.00  0.00    -0.366 OA
ATOM     17  H   UNL     1      -7.233   9.993   8.193  1.00  0.00    +0.213 HD
ENDBRANCH  14  16
BRANCH  15  18
ATOM     18  O   UNL     1      -8.874   7.145   8.126  1.00  0.00    -0.385 OA
ATOM     19  H   UNL     1      -8.022   6.657   8.107  1.00  0.00    +0.211 HD
ENDBRANCH  15  18
ENDBRANCH   7   8
ENDBRANCH   1   7
BRANCH   2  20
ATOM     20  O   UNL     1     -12.581   7.890   4.590  1.00  0.00    -0.385 OA
ATOM     21  H   UNL     1     -12.041   8.054   5.388  1.00  0.00    +0.211 HD
ENDBRANCH   2  20
BRANCH   3  22
ATOM     22  O   UNL     1     -13.374   6.882   2.126  1.00  0.00    -0.387 OA
ATOM     23  H   UNL     1     -13.773   6.924   1.231  1.00  0.00    +0.211 HD
ENDBRANCH   3  22
BRANCH   5  24
ATOM     24  C   UNL     1      -8.957   7.903   1.411  1.00  0.00    +0.220 C 
BRANCH  24  25
ATOM     25  O   UNL     1      -7.819   8.715   1.132  1.00  0.00    -0.245 OA
BRANCH  25  26
ATOM     26  S   UNL     1      -6.779   9.003   2.344  1.00  0.00    +0.397 S 
ATOM     27  O   UNL     1      -5.494   9.395   1.810  1.00  0.00    -0.169 OA
ATOM     28  O   UNL     1      -6.917   7.947   3.321  1.00  0.00    -0.169 OA
BRANCH  26  29
ATOM     29  O   UNL     1      -7.432  10.297   3.044  1.00  0.00    -0.264 OA
ATOM     30  H   UNL     1      -7.136  11.078   2.533  1.00  0.00    +0.236 HD
ENDBRANCH  26  29
ENDBRANCH  25  26
ENDBRANCH  24  25
ENDBRANCH   5  24
BRANCH   4  31
ATOM     31  O   UNL     1     -11.251   6.593   0.667  1.00  0.00    -0.387 OA
ATOM     32  H   UNL     1     -12.010   6.308   0.110  1.00  0.00    +0.211 HD
ENDBRANCH   4  31
TORSDOF 11
ENDMDL
MODEL 3
REMARK VINA RESULT:    -6.418      1.781      2.492
REMARK INTER + INTRA:         -10.717
REMARK INTER:                  -9.719
REMARK INTRA:                  -0.998
REMARK UNBOUND:                -1.297
REMARK SMILES O=S(=O)(O)OC[C@@H]1O[C@H](O[C@H]2[C@@H]3OC[C@H]2O[C@@H](O)[C@H]3O)[C@@H](O)[C@H](O)[C@@H]1O
REMARK SMILES IDX 9 1 21 2 23 3 25 4 7 5 8 6 10 7 11 8 14 9 15 10 13 11 16 12
REMARK SMILES IDX 12 13 17 14 19 15 18 16 20 18 22 20 24 22 6 24 5 25 2 26
REMARK SMILES IDX 1 27 3 28 4 29 26 31
REMARK H PARENT 18 17 20 19 22 21 24 23 4 30 26 32
ROOT
ATOM      1  C   UNL     1      -9.065   7.308   3.640  1.00  0.00    +0.282 C 
ATOM      2  C   UNL     1     -10.020   7.412   4.845  1.00  0.00    +0.202 C 
ATOM      3  C   UNL     1      -9.519   6.473   5.929  1.00  0.00    +0.179 C 
ATOM      4  C   UNL     1      -8.150   6.951   6.420  1.00  0.00    +0.177 C 
ATOM      5  C   UNL     1      -7.272   7.530   5.285  1.00  0.00    +0.180 C 
ATOM      6  O   UNL     1      -7.698   7.088   3.982  1.00  0.00    -0.341 OA
ENDROOT
BRANCH   1   7
ATOM      7  O   UNL     1      -9.261   8.467   2.825  1.00  0.00    -0.341 OA
BRANCH   7   8
ATOM      8  C   UNL     1      -8.840   8.276   1.478  1.00  0.00    +0.184 C 
ATOM      9  C   UNL     1      -8.915   8.764  -0.813  1.00  0.00    +0.195 C 
ATOM     10  C   UNL     1      -9.165   9.429   0.541  1.00  0.00    +0.179 C 
ATOM     11  O   UNL     1      -9.281   7.370  -0.643  1.00  0.00    -0.370 OA
ATOM     12  O   UNL     1     -10.527   9.856   0.723  1.00  0.00    -0.342 OA
ATOM     13  C   UNL     1      -9.644   7.204   0.752  1.00  0.00    +0.184 C 
ATOM     14  C   UNL     1     -11.532   8.876   0.483  1.00  0.00    +0.279 C 
ATOM     15  C   UNL     1     -11.147   7.452   0.940  1.00  0.00    +0.202 C 
BRANCH  14  16
ATOM     16  O   UNL     1     -11.853   8.882  -0.906  1.00  0.00    -0.366 OA
ATOM     17  H   UNL     1     -11.576   9.762  -1.217  1.00  0.00    +0.213 HD
ENDBRANCH  14  16
BRANCH  15  18
ATOM     18  O   UNL     1     -11.907   6.465   0.230  1.00  0.00    -0.385 OA
ATOM     19  H   UNL     1     -11.228   5.839  -0.104  1.00  0.00    +0.211 HD
ENDBRANCH  15  18
ENDBRANCH   7   8
ENDBRANCH   1   7
BRANCH   2  20
ATOM     20  O   UNL     1     -11.362   7.044   4.484  1.00  0.00    -0.385 OA
ATOM     21  H   UNL     1     -11.914   7.228   5.270  1.00  0.00    +0.211 HD
ENDBRANCH   2  20
BRANCH   3  22
ATOM     22  O   UNL     1     -10.437   6.449   7.035  1.00  0.00    -0.387 OA
ATOM     23  H   UNL     1      -9.965   5.959   7.741  1.00  0.00    +0.211 HD
ENDBRANCH   3  22
BRANCH   5  24
ATOM     24  C   UNL     1      -7.065   9.055   5.334  1.00  0.00    +0.220 C 
BRANCH  24  25
ATOM     25  O   UNL     1      -5.672   9.318   5.484  1.00  0.00    -0.245 OA
BRANCH  25  26
ATOM     26  S   UNL     1      -5.163   9.915   6.906  1.00  0.00    +0.397 S 
ATOM     27  O   UNL     1      -3.719   9.890   6.963  1.00  0.00    -0.169 OA
ATOM     28  O   UNL     1      -5.986   9.355   7.954  1.00  0.00    -0.169 OA
BRANCH  26  29
ATOM     29  O   UNL     1      -5.621  11.455   6.804  1.00  0.00    -0.264 OA
ATOM     30  H   UNL     1      -6.461  11.536   7.300  1.00  0.00    +0.236 HD
ENDBRANCH  26  29
ENDBRANCH  25  26
ENDBRANCH  24  25
ENDBRANCH   5  24
BRANCH   4  31
ATOM     31  O   UNL     1      -8.335   7.901   7.475  1.00  0.00    -0.387 OA
ATOM     32  H   UNL     1      -7.646   7.676   8.140  1.00  0.00    +0.211 HD
ENDBRANCH   4  31
TORSDOF 11
ENDMDL
MODEL 4
REMARK VINA RESULT:    -6.413      2.512      6.285
REMARK INTER + INTRA:         -10.710
REMARK INTER:                  -9.028
REMARK INTRA:                  -1.682
REMARK UNBOUND:                -1.297
REMARK SMILES O=S(=O)(O)OC[C@@H]1O[C@H](O[C@H]2[C@@H]3OC[C@H]2O[C@@H](O)[C@H]3O)[C@@H](O)[C@H](O)[C@@H]1O
REMARK SMILES IDX 9 1 21 2 23 3 25 4 7 5 8 6 10 7 11 8 14 9 15 10 13 11 16 12
REMARK SMILES IDX 12 13 17 14 19 15 18 16 20 18 22 20 24 22 6 24 5 25 2 26
REMARK SMILES IDX 1 27 3 28 4 29 26 31
REMARK H PARENT 18 17 20 19 22 21 24 23 4 30 26 32
ROOT
ATOM      1  C   UNL     1      -8.422   9.536   2.805  1.00  0.00    +0.282 C 
ATOM      2  C   UNL     1      -7.114   9.202   2.063  1.00  0.00    +0.202 C 
ATOM      3  C   UNL     1      -7.393   9.237   0.570  1.00  0.00    +0.179 C 
ATOM      4  C   UNL     1      -7.771  10.663   0.159  1.00  0.00    +0.177 C 
ATOM      5  C   UNL     1      -8.618  11.393   1.228  1.00  0.00    +0.180 C 
ATOM      6  O   UNL     1      -9.260  10.479   2.138  1.00  0.00    -0.341 OA
ENDROOT
BRANCH   1   7
ATOM      7  O   UNL     1      -8.082   9.930   4.137  1.00  0.00    -0.341 OA
BRANCH   7   8
ATOM      8  C   UNL     1      -8.539   9.010   5.122  1.00  0.00    +0.184 C 
ATOM      9  C   UNL     1      -9.045   8.407   7.330  1.00  0.00    +0.195 C 
ATOM     10  C   UNL     1      -8.970   9.645   6.435  1.00  0.00    +0.179 C 
ATOM     11  O   UNL     1      -8.013   7.508   6.849  1.00  0.00    -0.370 OA
ATOM     12  O   UNL     1      -7.993  10.606   6.872  1.00  0.00    -0.342 OA
ATOM     13  C   UNL     1      -7.420   8.142   5.686  1.00  0.00    +0.184 C 
ATOM     14  C   UNL     1      -6.680  10.109   7.106  1.00  0.00    +0.279 C 
ATOM     15  C   UNL     1      -6.232   9.017   6.108  1.00  0.00    +0.202 C 
BRANCH  14  16
ATOM     16  O   UNL     1      -6.607   9.619   8.442  1.00  0.00    -0.366 OA
ATOM     17  H   UNL     1      -6.782   8.665   8.363  1.00  0.00    +0.213 HD
ENDBRANCH  14  16
BRANCH  15  18
ATOM     18  O   UNL     1      -5.192   8.207   6.671  1.00  0.00    -0.385 OA
ATOM     19  H   UNL     1      -4.409   8.408   6.115  1.00  0.00    +0.211 HD
ENDBRANCH  15  18
ENDBRANCH   7   8
ENDBRANCH   1   7
BRANCH   2  20
ATOM     20  O   UNL     1      -6.625   7.898   2.422  1.00  0.00    -0.385 OA
ATOM     21  H   UNL     1      -6.131   7.571   1.645  1.00  0.00    +0.211 HD
ENDBRANCH   2  20
BRANCH   3  22
ATOM     22  O   UNL     1      -6.230   8.824  -0.167  1.00  0.00    -0.387 OA
ATOM     23  H   UNL     1      -5.640   9.608  -0.164  1.00  0.00    +0.211 HD
ENDBRANCH   3  22
BRANCH   5  24
ATOM     24  C   UNL     1      -7.891  12.528   1.973  1.00  0.00    +0.220 C 
BRANCH  24  25
ATOM     25  O   UNL     1      -8.863  13.315   2.657  1.00  0.00    -0.245 OA
BRANCH  25  26
ATOM     26  S   UNL     1      -8.665  13.544   4.252  1.00  0.00    +0.397 S 
ATOM     27  O   UNL     1      -9.841  13.098   4.964  1.00  0.00    -0.169 OA
ATOM     28  O   UNL     1      -8.093  14.855   4.455  1.00  0.00    -0.169 OA
BRANCH  26  29
ATOM     29  O   UNL     1      -7.471  12.519   4.591  1.00  0.00    -0.264 OA
ATOM     30  H   UNL     1      -6.646  12.921   4.252  1.00  0.00    +0.236 HD
ENDBRANCH  26  29
ENDBRANCH  25  26
ENDBRANCH  24  25
ENDBRANCH   5  24
BRANCH   4  31
ATOM     31  O   UNL     1      -6.579  11.392  -0.153  1.00  0.00    -0.387 OA
ATOM     32  H   UNL     1      -6.785  12.324   0.086  1.00  0.00    +0.211 HD
ENDBRANCH   4  31
TORSDOF 11
ENDMDL
MODEL 5
REMARK VINA RESULT:    -6.341      2.855      4.595
REMARK INTER + INTRA:         -10.604
REMARK INTER:                  -9.741
REMARK INTRA:                  -0.863
REMARK UNBOUND:                -1.297
REMARK SMILES O=S(=O)(O)OC[C@@H]1O[C@H](O[C@H]2[C@@H]3OC[C@H]2O[C@@H](O)[C@H]3O)[C@@H](O)[C@H](O)[C@@H]1O
REMARK SMILES IDX 9 1 21 2 23 3 25 4 7 5 8 6 10 7 11 8 14 9 15 10 13 11 16 12
REMARK SMILES IDX 12 13 17 14 19 15 18 16 20 18 22 20 24 22 6 24 5 25 2 26
REMARK SMILES IDX 1 27 3 28 4 29 26 31
REMARK H PARENT 18 17 20 19 22 21 24 23 4 30 26 32
ROOT
ATOM      1  C   UNL     1      -9.385   9.113   4.735  1.00  0.00    +0.282 C 
ATOM      2  C   UNL     1     -10.174   7.840   5.100  1.00  0.00    +0.202 C 
ATOM      3  C   UNL     1      -9.700   6.714   4.198  1.00  0.00    +0.179 C 
ATOM      4  C   UNL     1      -8.229   6.412   4.497  1.00  0.00    +0.177 C 
ATOM      5  C   UNL     1      -7.407   7.682   4.823  1.00  0.00    +0.180 C 
ATOM      6  O   UNL     1      -8.036   8.882   4.335  1.00  0.00    -0.341 OA
ENDROOT
BRANCH   1   7
ATOM      7  O   UNL     1      -9.498  10.027   5.830  1.00  0.00    -0.341 OA
BRANCH   7   8
ATOM      8  C   UNL     1      -9.785  11.358   5.414  1.00  0.00    +0.184 C 
ATOM      9  C   UNL     1      -9.146  13.499   4.705  1.00  0.00    +0.195 C 
ATOM     10  C   UNL     1      -8.651  12.052   4.675  1.00  0.00    +0.179 C 
ATOM     11  O   UNL     1      -9.873  13.643   5.952  1.00  0.00    -0.370 OA
ATOM     12  O   UNL     1      -7.407  11.860   5.370  1.00  0.00    -0.342 OA
ATOM     13  C   UNL     1      -9.880  12.335   6.581  1.00  0.00    +0.184 C 
ATOM     14  C   UNL     1      -7.347  12.355   6.704  1.00  0.00    +0.279 C 
ATOM     15  C   UNL     1      -8.661  12.183   7.500  1.00  0.00    +0.202 C 
BRANCH  14  16
ATOM     16  O   UNL     1      -6.966  13.727   6.667  1.00  0.00    -0.366 OA
ATOM     17  H   UNL     1      -7.585  14.170   7.274  1.00  0.00    +0.213 HD
ENDBRANCH  14  16
BRANCH  15  18
ATOM     18  O   UNL     1      -8.730  13.124   8.579  1.00  0.00    -0.385 OA
ATOM     19  H   UNL     1      -8.479  12.598   9.368  1.00  0.00    +0.211 HD
ENDBRANCH  15  18
ENDBRANCH   7   8
ENDBRANCH   1   7
BRANCH   2  20
ATOM     20  O   UNL     1     -11.588   8.028   4.917  1.00  0.00    -0.385 OA
ATOM     21  H   UNL     1     -11.889   7.288   4.354  1.00  0.00    +0.211 HD
ENDBRANCH   2  20
BRANCH   3  22
ATOM     22  O   UNL     1     -10.481   5.528   4.423  1.00  0.00    -0.387 OA
ATOM     23  H   UNL     1     -11.277   5.841   4.903  1.00  0.00    +0.211 HD
ENDBRANCH   3  22
BRANCH   5  24
ATOM     24  C   UNL     1      -6.973   7.819   6.294  1.00  0.00    +0.220 C 
BRANCH  24  25
ATOM     25  O   UNL     1      -6.449   9.131   6.490  1.00  0.00    -0.245 OA
BRANCH  25  26
ATOM     26  S   UNL     1      -4.921   9.264   7.020  1.00  0.00    +0.397 S 
ATOM     27  O   UNL     1      -4.906   9.384   8.460  1.00  0.00    -0.169 OA
ATOM     28  O   UNL     1      -4.223  10.195   6.163  1.00  0.00    -0.169 OA
BRANCH  26  29
ATOM     29  O   UNL     1      -4.310   7.823   6.643  1.00  0.00    -0.264 OA
ATOM     30  H   UNL     1      -5.068   7.216   6.519  1.00  0.00    +0.236 HD
ENDBRANCH  26  29
ENDBRANCH  25  26
ENDBRANCH  24  25
ENDBRANCH   5  24
BRANCH   4  31
ATOM     31  O   UNL     1      -8.153   5.453   5.559  1.00  0.00    -0.387 OA
ATOM     32  H   UNL     1      -7.221   5.138   5.547  1.00  0.00    +0.211 HD
ENDBRANCH   4  31
TORSDOF 11
ENDMDL
MODEL 6
REMARK VINA RESULT:    -6.250      3.956      7.787
REMARK INTER + INTRA:         -10.470
REMARK INTER:                  -8.773
REMARK INTRA:                  -1.697
REMARK UNBOUND:                -1.297
REMARK SMILES O=S(=O)(O)OC[C@@H]1O[C@H](O[C@H]2[C@@H]3OC[C@H]2O[C@@H](O)[C@H]3O)[C@@H](O)[C@H](O)[C@@H]1O
REMARK SMILES IDX 9 1 21 2 23 3 25 4 7 5 8 6 10 7 11 8 14 9 15 10 13 11 16 12
REMARK SMILES IDX 12 13 17 14 19 15 18 16 20 18 22 20 24 22 6 24 5 25 2 26
REMARK SMILES IDX 1 27 3 28 4 29 26 31
REMARK H PARENT 18 17 20 19 22 21 24 23 4 30 26 32
ROOT
ATOM      1  C   UNL     1      -7.815   8.501  -1.721  1.00  0.00    +0.282 C 
ATOM      2  C   UNL     1      -7.830   9.689  -2.702  1.00  0.00    +0.202 C 
ATOM      3  C   UNL     1      -7.742   9.138  -4.115  1.00  0.00    +0.179 C 
ATOM      4  C   UNL     1      -8.996   8.313  -4.415  1.00  0.00    +0.177 C 
ATOM      5  C   UNL     1      -9.499   7.512  -3.190  1.00  0.00    +0.180 C 
ATOM      6  O   UNL     1      -8.471   7.328  -2.197  1.00  0.00    -0.341 OA
ENDROOT
BRANCH   1   7
ATOM      7  O   UNL     1      -8.327   8.962  -0.467  1.00  0.00    -0.341 OA
BRANCH   7   8
ATOM      8  C   UNL     1      -7.476   8.647   0.630  1.00  0.00    +0.184 C 
ATOM      9  C   UNL     1      -6.953   8.617   2.915  1.00  0.00    +0.195 C 
ATOM     10  C   UNL     1      -8.167   8.625   1.985  1.00  0.00    +0.179 C 
ATOM     11  O   UNL     1      -5.928   9.386   2.234  1.00  0.00    -0.370 OA
ATOM     12  O   UNL     1      -8.998   9.789   2.143  1.00  0.00    -0.342 OA
ATOM     13  C   UNL     1      -6.476   9.753   0.941  1.00  0.00    +0.184 C 
ATOM     14  C   UNL     1      -8.339  11.049   2.074  1.00  0.00    +0.279 C 
ATOM     15  C   UNL     1      -7.195  11.106   1.037  1.00  0.00    +0.202 C 
BRANCH  14  16
ATOM     16  O   UNL     1      -7.850  11.381   3.371  1.00  0.00    -0.366 OA
ATOM     17  H   UNL     1      -8.628  11.304   3.952  1.00  0.00    +0.213 HD
ENDBRANCH  14  16
BRANCH  15  18
ATOM     18  O   UNL     1      -6.262  12.144   1.364  1.00  0.00    -0.385 OA
ATOM     19  H   UNL     1      -5.763  11.782   2.128  1.00  0.00    +0.211 HD
ENDBRANCH  15  18
ENDBRANCH   7   8
ENDBRANCH   1   7
BRANCH   2  20
ATOM     20  O   UNL     1      -6.721  10.575  -2.471  1.00  0.00    -0.385 OA
ATOM     21  H   UNL     1      -6.454  10.909  -3.350  1.00  0.00    +0.211 HD
ENDBRANCH   2  20
BRANCH   3  22
ATOM     22  O   UNL     1      -7.642  10.211  -5.067  1.00  0.00    -0.387 OA
ATOM     23  H   UNL     1      -7.064   9.862  -5.777  1.00  0.00    +0.211 HD
ENDBRANCH   3  22
BRANCH   5  24
ATOM     24  C   UNL     1     -10.811   8.025  -2.569  1.00  0.00    +0.220 C 
BRANCH  24  25
ATOM     25  O   UNL     1     -11.401   6.966  -1.819  1.00  0.00    -0.245 OA
BRANCH  25  26
ATOM     26  S   UNL     1     -11.378   7.080  -0.200  1.00  0.00    +0.397 S 
ATOM     27  O   UNL     1     -10.229   6.380   0.329  1.00  0.00    -0.169 OA
ATOM     28  O   UNL     1     -12.717   6.844   0.291  1.00  0.00    -0.169 OA
BRANCH  26  29
ATOM     29  O   UNL     1     -11.134   8.656   0.020  1.00  0.00    -0.264 OA
ATOM     30  H   UNL     1     -11.614   8.908   0.834  1.00  0.00    +0.236 HD
ENDBRANCH  26  29
ENDBRANCH  25  26
ENDBRANCH  24  25
ENDBRANCH   5  24
BRANCH   4  31
ATOM     31  O   UNL     1     -10.015   9.178  -4.929  1.00  0.00    -0.387 OA
ATOM     32  H   UNL     1      -9.567  10.043  -5.062  1.00  0.00    +0.211 HD
ENDBRANCH   4  31
TORSDOF 11
ENDMDL
MODEL 7
REMARK VINA RESULT:    -6.202      2.875      5.028
REMARK INTER + INTRA:         -10.400
REMARK INTER:                  -8.703
REMARK INTRA:                  -1.697
REMARK UNBOUND:                -1.297
REMARK SMILES O=S(=O)(O)OC[C@@H]1O[C@H](O[C@H]2[C@@H]3OC[C@H]2O[C@@H](O)[C@H]3O)[C@@H](O)[C@H](O)[C@@H]1O
REMARK SMILES IDX 9 1 21 2 23 3 25 4 7 5 8 6 10 7 11 8 14 9 15 10 13 11 16 12
REMARK SMILES IDX 12 13 17 14 19 15 18 16 20 18 22 20 24 22 6 24 5 25 2 26
REMARK SMILES IDX 1 27 3 28 4 29 26 31
REMARK H PARENT 18 17 20 19 22 21 24 23 4 30 26 32
ROOT
ATOM      1  C   UNL     1      -8.564   9.373   4.354  1.00  0.00    +0.282 C 
ATOM      2  C   UNL     1      -7.641   8.283   4.934  1.00  0.00    +0.202 C 
ATOM      3  C   UNL     1      -6.582   8.962   5.785  1.00  0.00    +0.179 C 
ATOM      4  C   UNL     1      -7.254   9.642   6.982  1.00  0.00    +0.177 C 
ATOM      5  C   UNL     1      -8.627  10.261   6.630  1.00  0.00    +0.180 C 
ATOM      6  O   UNL     1      -8.780  10.489   5.216  1.00  0.00    -0.341 OA
ENDROOT
BRANCH   1   7
ATOM      7  O   UNL     1      -9.777   8.742   3.936  1.00  0.00    -0.341 OA
BRANCH   7   8
ATOM      8  C   UNL     1     -10.256   9.232   2.687  1.00  0.00    +0.184 C 
ATOM      9  C   UNL     1     -11.916   9.489   1.052  1.00  0.00    +0.195 C 
ATOM     10  C   UNL     1     -11.771   9.276   2.560  1.00  0.00    +0.179 C 
ATOM     11  O   UNL     1     -10.797   8.794   0.444  1.00  0.00    -0.370 OA
ATOM     12  O   UNL     1     -12.349   8.041   3.018  1.00  0.00    -0.342 OA
ATOM     13  C   UNL     1      -9.993   8.272   1.534  1.00  0.00    +0.184 C 
ATOM     14  C   UNL     1     -11.945   6.862   2.331  1.00  0.00    +0.279 C 
ATOM     15  C   UNL     1     -10.459   6.857   1.905  1.00  0.00    +0.202 C 
BRANCH  14  16
ATOM     16  O   UNL     1     -12.787   6.684   1.194  1.00  0.00    -0.366 OA
ATOM     17  H   UNL     1     -12.176   6.453   0.471  1.00  0.00    +0.213 HD
ENDBRANCH  14  16
BRANCH  15  18
ATOM     18  O   UNL     1     -10.245   5.958   0.809  1.00  0.00    -0.385 OA
ATOM     19  H   UNL     1      -9.508   5.386   1.113  1.00  0.00    +0.211 HD
ENDBRANCH  15  18
ENDBRANCH   7   8
ENDBRANCH   1   7
BRANCH   2  20
ATOM     20  O   UNL     1      -6.998   7.530   3.891  1.00  0.00    -0.385 OA
ATOM     21  H   UNL     1      -7.521   7.688   3.081  1.00  0.00    +0.211 HD
ENDBRANCH   2  20
BRANCH   3  22
ATOM     22  O   UNL     1      -5.629   7.998   6.263  1.00  0.00    -0.387 OA
ATOM     23  H   UNL     1      -6.164   7.210   6.495  1.00  0.00    +0.211 HD
ENDBRANCH   3  22
BRANCH   5  24
ATOM     24  C   UNL     1      -9.844   9.532   7.227  1.00  0.00    +0.220 C 
BRANCH  24  25
ATOM     25  O   UNL     1     -11.030  10.121   6.698  1.00  0.00    -0.245 OA
BRANCH  25  26
ATOM     26  S   UNL     1     -12.352   9.186   6.580  1.00  0.00    +0.397 S 
ATOM     27  O   UNL     1     -13.322   9.810   5.709  1.00  0.00    -0.169 OA
ATOM     28  O   UNL     1     -12.695   8.716   7.903  1.00  0.00    -0.169 OA
BRANCH  26  29
ATOM     29  O   UNL     1     -11.776   7.888   5.820  1.00  0.00    -0.264 OA
ATOM     30  H   UNL     1     -12.109   7.926   4.901  1.00  0.00    +0.236 HD
ENDBRANCH  26  29
ENDBRANCH  25  26
ENDBRANCH  24  25
ENDBRANCH   5  24
BRANCH   4  31
ATOM     31  O   UNL     1      -7.363   8.701   8.055  1.00  0.00    -0.387 OA
ATOM     32  H   UNL     1      -6.665   8.967   8.695  1.00  0.00    +0.211 HD
ENDBRANCH   4  31
TORSDOF 11
ENDMDL
MODEL 8
REMARK VINA RESULT:    -6.140      2.006      2.576
REMARK INTER + INTRA:         -10.309
REMARK INTER:                  -9.438
REMARK INTRA:                  -0.871
REMARK UNBOUND:                -1.297
REMARK SMILES O=S(=O)(O)OC[C@@H]1O[C@H](O[C@H]2[C@@H]3OC[C@H]2O[C@@H](O)[C@H]3O)[C@@H](O)[C@H](O)[C@@H]1O
REMARK SMILES IDX 9 1 21 2 23 3 25 4 7 5 8 6 10 7 11 8 14 9 15 10 13 11 16 12
REMARK SMILES IDX 12 13 17 14 19 15 18 16 20 18 22 20 24 22 6 24 5 25 2 26
REMARK SMILES IDX 1 27 3 28 4 29 26 31
REMARK H PARENT 18 17 20 19 22 21 24 23 4 30 26 32
ROOT
ATOM      1  C   UNL     1      -9.923   9.584   4.004  1.00  0.00    +0.282 C 
ATOM      2  C   UNL     1     -10.689  10.852   4.430  1.00  0.00    +0.202 C 
ATOM      3  C   UNL     1     -11.403  10.558   5.738  1.00  0.00    +0.179 C 
ATOM      4  C   UNL     1     -10.366  10.291   6.832  1.00  0.00    +0.177 C 
ATOM      5  C   UNL     1      -9.129   9.519   6.314  1.00  0.00    +0.180 C 
ATOM      6  O   UNL     1      -9.396   8.817   5.085  1.00  0.00    -0.341 OA
ENDROOT
BRANCH   1   7
ATOM      7  O   UNL     1      -8.929   9.971   3.052  1.00  0.00    -0.341 OA
BRANCH   7   8
ATOM      8  C   UNL     1      -9.162   9.431   1.755  1.00  0.00    +0.184 C 
ATOM      9  C   UNL     1      -8.624   8.019  -0.037  1.00  0.00    +0.195 C 
ATOM     10  C   UNL     1      -8.459   8.110   1.481  1.00  0.00    +0.179 C 
ATOM     11  O   UNL     1      -8.589   9.386  -0.522  1.00  0.00    -0.370 OA
ATOM     12  O   UNL     1      -7.084   8.176   1.901  1.00  0.00    -0.342 OA
ATOM     13  C   UNL     1      -8.494  10.239   0.649  1.00  0.00    +0.184 C 
ATOM     14  C   UNL     1      -6.280   9.170   1.276  1.00  0.00    +0.279 C 
ATOM     15  C   UNL     1      -7.021  10.497   0.997  1.00  0.00    +0.202 C 
BRANCH  14  16
ATOM     16  O   UNL     1      -5.749   8.635   0.066  1.00  0.00    -0.366 OA
ATOM     17  H   UNL     1      -5.920   9.323  -0.601  1.00  0.00    +0.213 HD
ENDBRANCH  14  16
BRANCH  15  18
ATOM     18  O   UNL     1      -6.381  11.227  -0.058  1.00  0.00    -0.385 OA
ATOM     19  H   UNL     1      -6.233  12.117   0.326  1.00  0.00    +0.211 HD
ENDBRANCH  15  18
ENDBRANCH   7   8
ENDBRANCH   1   7
BRANCH   2  20
ATOM     20  O   UNL     1     -11.656  11.238   3.439  1.00  0.00    -0.385 OA
ATOM     21  H   UNL     1     -12.137  12.003   3.814  1.00  0.00    +0.211 HD
ENDBRANCH   2  20
BRANCH   3  22
ATOM     22  O   UNL     1     -12.222  11.675   6.124  1.00  0.00    -0.387 OA
ATOM     23  H   UNL     1     -12.892  11.752   5.412  1.00  0.00    +0.211 HD
ENDBRANCH   3  22
BRANCH   5  24
ATOM     24  C   UNL     1      -7.832  10.344   6.233  1.00  0.00    +0.220 C 
BRANCH  24  25
ATOM     25  O   UNL     1      -6.734   9.447   6.081  1.00  0.00    -0.245 OA
BRANCH  25  26
ATOM     26  S   UNL     1      -5.313   9.871   6.741  1.00  0.00    +0.397 S 
ATOM     27  O   UNL     1      -4.234   9.563   5.830  1.00  0.00    -0.169 OA
ATOM     28  O   UNL     1      -5.305   9.437   8.120  1.00  0.00    -0.169 OA
BRANCH  26  29
ATOM     29  O   UNL     1      -5.446  11.474   6.817  1.00  0.00    -0.264 OA
ATOM     30  H   UNL     1      -5.784  11.690   7.710  1.00  0.00    +0.236 HD
ENDBRANCH  26  29
ENDBRANCH  25  26
ENDBRANCH  24  25
ENDBRANCH   5  24
BRANCH   4  31
ATOM     31  O   UNL     1      -9.992  11.534   7.437  1.00  0.00    -0.387 OA
ATOM     32  H   UNL     1      -9.114  11.748   7.049  1.00  0.00    +0.211 HD
ENDBRANCH   4  31
TORSDOF 11
ENDMDL
MODEL 9
REMARK VINA RESULT:    -6.135      2.232      3.173
REMARK INTER + INTRA:         -10.301
REMARK INTER:                  -9.528
REMARK INTRA:                  -0.773
REMARK UNBOUND:                -1.297
REMARK SMILES O=S(=O)(O)OC[C@@H]1O[C@H](O[C@H]2[C@@H]3OC[C@H]2O[C@@H](O)[C@H]3O)[C@@H](O)[C@H](O)[C@@H]1O
REMARK SMILES IDX 9 1 21 2 23 3 25 4 7 5 8 6 10 7 11 8 14 9 15 10 13 11 16 12
REMARK SMILES IDX 12 13 17 14 19 15 18 16 20 18 22 20 24 22 6 24 5 25 2 26
REMARK SMILES IDX 1 27 3 28 4 29 26 31
REMARK H PARENT 18 17 20 19 22 21 24 23 4 30 26 32
ROOT
ATOM      1  C   UNL     1      -8.862  10.820   4.862  1.00  0.00    +0.282 C 
ATOM      2  C   UNL     1      -8.102  11.824   5.750  1.00  0.00    +0.202 C 
ATOM      3  C   UNL     1      -8.900  12.027   7.027  1.00  0.00    +0.179 C 
ATOM      4  C   UNL     1      -8.950  10.711   7.807  1.00  0.00    +0.177 C 
ATOM      5  C   UNL     1      -9.062   9.470   6.889  1.00  0.00    +0.180 C 
ATOM      6  O   UNL     1      -9.558   9.801   5.578  1.00  0.00    -0.341 OA
ENDROOT
BRANCH   1   7
ATOM      7  O   UNL     1      -7.940  10.302   3.899  1.00  0.00    -0.341 OA
BRANCH   7   8
ATOM      8  C   UNL     1      -8.584   9.666   2.800  1.00  0.00    +0.184 C 
ATOM      9  C   UNL     1      -8.671   8.086   1.071  1.00  0.00    +0.195 C 
ATOM     10  C   UNL     1      -8.028   8.296   2.443  1.00  0.00    +0.179 C 
ATOM     11  O   UNL     1      -8.769   9.404   0.473  1.00  0.00    -0.370 OA
ATOM     12  O   UNL     1      -6.591   8.333   2.399  1.00  0.00    -0.342 OA
ATOM     13  C   UNL     1      -8.291  10.346   1.467  1.00  0.00    +0.184 C 
ATOM     14  C   UNL     1      -6.012   9.233   1.460  1.00  0.00    +0.279 C 
ATOM     15  C   UNL     1      -6.780  10.565   1.306  1.00  0.00    +0.202 C 
BRANCH  14  16
ATOM     16  O   UNL     1      -5.904   8.574   0.201  1.00  0.00    -0.366 OA
ATOM     17  H   UNL     1      -6.209   9.234  -0.448  1.00  0.00    +0.213 HD
ENDBRANCH  14  16
BRANCH  15  18
ATOM     18  O   UNL     1      -6.498  11.173   0.039  1.00  0.00    -0.385 OA
ATOM     19  H   UNL     1      -6.223  12.086   0.270  1.00  0.00    +0.211 HD
ENDBRANCH  15  18
ENDBRANCH   7   8
ENDBRANCH   1   7
BRANCH   2  20
ATOM     20  O   UNL     1      -7.938  13.091   5.089  1.00  0.00    -0.385 OA
ATOM     21  H   UNL     1      -8.080  12.920   4.137  1.00  0.00    +0.211 HD
ENDBRANCH   2  20
BRANCH   3  22
ATOM     22  O   UNL     1      -8.289  13.039   7.845  1.00  0.00    -0.387 OA
ATOM     23  H   UNL     1      -7.325  12.878   7.764  1.00  0.00    +0.211 HD
ENDBRANCH   3  22
BRANCH   5  24
ATOM     24  C   UNL     1      -7.798   8.594   6.819  1.00  0.00    +0.220 C 
BRANCH  24  25
ATOM     25  O   UNL     1      -6.721   9.303   7.429  1.00  0.00    -0.245 OA
BRANCH  25  26
ATOM     26  S   UNL     1      -5.320   9.398   6.614  1.00  0.00    +0.397 S 
ATOM     27  O   UNL     1      -4.466   8.287   6.969  1.00  0.00    -0.169 OA
ATOM     28  O   UNL     1      -4.861  10.768   6.660  1.00  0.00    -0.169 OA
BRANCH  26  29
ATOM     29  O   UNL     1      -5.802   9.178   5.094  1.00  0.00    -0.264 OA
ATOM     30  H   UNL     1      -5.525   8.276   4.835  1.00  0.00    +0.236 HD
ENDBRANCH  26  29
ENDBRANCH  25  26
ENDBRANCH  24  25
ENDBRANCH   5  24
BRANCH   4  31
ATOM     31  O   UNL     1      -7.803  10.628   8.661  1.00  0.00    -0.387 OA
ATOM     32  H   UNL     1      -8.149  10.813   9.563  1.00  0.00    +0.211 HD
ENDBRANCH   4  31
TORSDOF 11
ENDMDL
