MODEL 1
REMARK VINA RESULT:    -7.568      0.000      0.000
REMARK INTER + INTRA:         -18.652
REMARK INTER:                 -15.532
REMARK INTRA:                  -3.120
REMARK UNBOUND:                -3.120
REMARK SMILES O=C[C@@H](O)[C@@H](O)[C@H](CO)O[C@H]1OC[C@@H](O[C@@H]2OC[C@H](O[C@H]3OC[C@H](O[C@H]4OC[C@H](O)[C@H](O)[C@@H]4O)[C@@H](O)[C@H]3O)[C@H](O)[C@@H]2O)[C@@H](O)[C@H]1O
REMARK SMILES IDX 15 1 16 2 19 3 18 4 39 5 17 6 41 7 20 8 21 9 24 10 23 11
REMARK SMILES IDX 35 12 22 13 37 14 25 15 26 16 28 17 29 18 27 19 31 20 33 21
REMARK SMILES IDX 30 22 32 24 34 26 36 28 38 30 40 32 42 34 14 36 13 37 43 38
REMARK SMILES IDX 12 39 45 40 11 41 44 42 46 44 10 46 7 47 8 48 9 49 5 51 3 52
REMARK SMILES IDX 2 53 1 54 4 55 6 57
REMARK H PARENT 30 23 32 25 34 27 36 29 38 31 40 33 42 35 44 43 46 45 9 50
REMARK H PARENT 4 56 6 58
ROOT
ATOM      1  O   UNL     1      -1.885   4.756 -16.668  1.00  0.00    -0.341 OA
ENDROOT
BRANCH   1   2
ATOM      2  C   UNL     1      -2.582   4.312 -15.501  1.00  0.00    +0.282 C 
ATOM      3  C   UNL     1      -4.467   5.530 -13.562  1.00  0.00    +0.179 C 
ATOM      4  C   UNL     1      -4.611   5.515 -15.093  1.00  0.00    +0.198 C 
ATOM      5  C   UNL     1      -3.098   4.947 -13.139  1.00  0.00    +0.179 C 
ATOM      6  O   UNL     1      -4.005   4.359 -15.664  1.00  0.00    -0.347 OA
ATOM      7  C   UNL     1      -2.066   5.083 -14.259  1.00  0.00    +0.202 C 
BRANCH   3   8
ATOM      8  O   UNL     1      -4.578   6.854 -13.014  1.00  0.00    -0.341 OA
BRANCH   8   9
ATOM      9  C   UNL     1      -5.923   7.306 -12.824  1.00  0.00    +0.282 C 
ATOM     10  C   UNL     1      -5.437   7.019 -10.110  1.00  0.00    +0.179 C 
ATOM     11  C   UNL     1      -6.707   6.415 -10.723  1.00  0.00    +0.198 C 
ATOM     12  C   UNL     1      -5.195   8.430 -10.685  1.00  0.00    +0.179 C 
ATOM     13  O   UNL     1      -6.692   6.311 -12.149  1.00  0.00    -0.347 OA
ATOM     14  C   UNL     1      -5.906   8.632 -12.035  1.00  0.00    +0.202 C 
BRANCH  10  15
ATOM     15  O   UNL     1      -5.598   7.009  -8.684  1.00  0.00    -0.341 OA
BRANCH  15  16
ATOM     16  C   UNL     1      -4.777   6.041  -8.018  1.00  0.00    +0.282 C 
ATOM     17  C   UNL     1      -2.599   5.803  -7.108  1.00  0.00    +0.198 C 
ATOM     18  C   UNL     1      -3.034   5.969  -5.648  1.00  0.00    +0.171 C 
ATOM     19  O   UNL     1      -3.439   6.557  -7.976  1.00  0.00    -0.347 OA
ATOM     20  C   UNL     1      -4.472   6.510  -5.550  1.00  0.00    +0.179 C 
ATOM     21  C   UNL     1      -5.358   5.829  -6.596  1.00  0.00    +0.202 C 
BRANCH  18  22
ATOM     22  O   UNL     1      -2.954   4.710  -4.958  1.00  0.00    -0.388 OA
ATOM     23  H   UNL     1      -3.259   4.879  -4.041  1.00  0.00    +0.211 HD
ENDBRANCH  18  22
BRANCH  20  24
ATOM     24  O   UNL     1      -5.006   6.248  -4.239  1.00  0.00    -0.387 OA
ATOM     25  H   UNL     1      -4.354   5.667  -3.793  1.00  0.00    +0.211 HD
ENDBRANCH  20  24
BRANCH  21  26
ATOM     26  O   UNL     1      -5.408   4.419  -6.270  1.00  0.00    -0.385 OA
ATOM     27  H   UNL     1      -5.992   4.376  -5.484  1.00  0.00    +0.211 HD
ENDBRANCH  21  26
ENDBRANCH  15  16
ENDBRANCH  10  15
BRANCH  12  28
ATOM     28  O   UNL     1      -3.774   8.635 -10.840  1.00  0.00    -0.387 OA
ATOM     29  H   UNL     1      -3.344   8.025 -10.206  1.00  0.00    +0.211 HD
ENDBRANCH  12  28
BRANCH  14  30
ATOM     30  O   UNL     1      -5.261   9.688 -12.761  1.00  0.00    -0.385 OA
ATOM     31  H   UNL     1      -5.771  10.504 -12.603  1.00  0.00    +0.211 HD
ENDBRANCH  14  30
ENDBRANCH   8   9
ENDBRANCH   3   8
BRANCH   5  32
ATOM     32  O   UNL     1      -2.609   5.594 -11.954  1.00  0.00    -0.387 OA
ATOM     33  H   UNL     1      -3.073   5.161 -11.205  1.00  0.00    +0.211 HD
ENDBRANCH   5  32
BRANCH   7  34
ATOM     34  O   UNL     1      -1.870   6.483 -14.545  1.00  0.00    -0.385 OA
ATOM     35  H   UNL     1      -1.142   6.517 -15.194  1.00  0.00    +0.211 HD
ENDBRANCH   7  34
ENDBRANCH   1   2
BRANCH   1  36
ATOM     36  C   UNL     1      -1.962   3.843 -17.765  1.00  0.00    +0.179 C 
ATOM     37  C   UNL     1      -1.616   2.428 -17.304  1.00  0.00    +0.198 C 
ATOM     38  C   UNL     1      -0.979   4.278 -18.872  1.00  0.00    +0.179 C 
ATOM     39  O   UNL     1      -1.768   1.456 -18.346  1.00  0.00    -0.347 OA
ATOM     40  C   UNL     1      -0.418   3.079 -19.655  1.00  0.00    +0.202 C 
ATOM     41  C   UNL     1      -1.446   1.928 -19.663  1.00  0.00    +0.282 C 
BRANCH  38  42
ATOM     42  O   UNL     1       0.132   5.020 -18.327  1.00  0.00    -0.387 OA
ATOM     43  H   UNL     1       0.152   4.803 -17.369  1.00  0.00    +0.211 HD
ENDBRANCH  38  42
BRANCH  40  44
ATOM     44  O   UNL     1       0.819   2.657 -19.041  1.00  0.00    -0.385 OA
ATOM     45  H   UNL     1       1.486   2.734 -19.756  1.00  0.00    +0.211 HD
ENDBRANCH  40  44
BRANCH  41  46
ATOM     46  O   UNL     1      -0.937   0.854 -20.452  1.00  0.00    -0.341 OA
BRANCH  46  47
ATOM     47  C   UNL     1      -1.072  -0.442 -19.845  1.00  0.00    +0.178 C 
BRANCH  47  48
ATOM     48  C   UNL     1      -2.212  -1.183 -20.552  1.00  0.00    +0.191 C 
BRANCH  48  49
ATOM     49  O   UNL     1      -2.851  -2.096 -19.669  1.00  0.00    -0.394 OA
ATOM     50  H   UNL     1      -2.441  -2.967 -19.824  1.00  0.00    +0.210 HD
ENDBRANCH  48  49
ENDBRANCH  47  48
BRANCH  47  51
ATOM     51  C   UNL     1       0.288  -1.188 -19.889  1.00  0.00    +0.181 C 
BRANCH  51  52
ATOM     52  C   UNL     1       1.136  -1.052 -18.613  1.00  0.00    +0.209 C 
BRANCH  52  53
ATOM     53  C   UNL     1       2.501  -0.480 -18.971  1.00  0.00    +0.258 C 
ATOM     54  O   UNL     1       2.632   0.519 -19.679  1.00  0.00    -0.300 OA
ENDBRANCH  52  53
BRANCH  52  55
ATOM     55  O   UNL     1       0.526  -0.192 -17.650  1.00  0.00    -0.383 OA
ATOM     56  H   UNL     1       0.323  -0.758 -16.876  1.00  0.00    +0.211 HD
ENDBRANCH  52  55
ENDBRANCH  51  52
BRANCH  51  57
ATOM     57  O   UNL     1       0.046  -2.594 -20.121  1.00  0.00    -0.387 OA
ATOM     58  H   UNL     1       0.342  -2.787 -21.039  1.00  0.00    +0.211 HD
ENDBRANCH  51  57
ENDBRANCH  47  51
ENDBRANCH  46  47
ENDBRANCH  41  46
ENDBRANCH   1  36
TORSDOF 24
ENDMDL
MODEL 2
REMARK VINA RESULT:    -6.908      0.979      2.038
REMARK INTER + INTRA:         -17.298
REMARK INTER:                 -15.439
REMARK INTRA:                  -1.860
REMARK UNBOUND:                -3.120
REMARK SMILES O=C[C@@H](O)[C@@H](O)[C@H](CO)O[C@H]1OC[C@@H](O[C@@H]2OC[C@H](O[C@H]3OC[C@H](O[C@H]4OC[C@H](O)[C@H](O)[C@@H]4O)[C@@H](O)[C@H]3O)[C@H](O)[C@@H]2O)[C@@H](O)[C@H]1O
REMARK SMILES IDX 15 1 16 2 19 3 18 4 39 5 17 6 41 7 20 8 21 9 24 10 23 11
REMARK SMILES IDX 35 12 22 13 37 14 25 15 26 16 28 17 29 18 27 19 31 20 33 21
REMARK SMILES IDX 30 22 32 24 34 26 36 28 38 30 40 32 42 34 14 36 13 37 43 38
REMARK SMILES IDX 12 39 45 40 11 41 44 42 46 44 10 46 7 47 8 48 9 49 5 51 3 52
REMARK SMILES IDX 2 53 1 54 4 55 6 57
REMARK H PARENT 30 23 32 25 34 27 36 29 38 31 40 33 42 35 44 43 46 45 9 50
REMARK H PARENT 4 56 6 58
ROOT
ATOM      1  O   UNL     1      -1.698   4.345 -16.918  1.00  0.00    -0.341 OA
ENDROOT
BRANCH   1   2
ATOM      2  C   UNL     1      -2.509   3.974 -15.799  1.00  0.00    +0.282 C 
ATOM      3  C   UNL     1      -4.253   5.407 -13.875  1.00  0.00    +0.179 C 
ATOM      4  C   UNL     1      -4.330   5.479 -15.408  1.00  0.00    +0.198 C 
ATOM      5  C   UNL     1      -3.017   4.589 -13.429  1.00  0.00    +0.179 C 
ATOM      6  O   UNL     1      -3.896   4.263 -16.012  1.00  0.00    -0.347 OA
ATOM      7  C   UNL     1      -1.929   4.599 -14.504  1.00  0.00    +0.202 C 
BRANCH   3   8
ATOM      8  O   UNL     1      -4.170   6.708 -13.269  1.00  0.00    -0.341 OA
BRANCH   8   9
ATOM      9  C   UNL     1      -5.436   7.299 -12.958  1.00  0.00    +0.282 C 
ATOM     10  C   UNL     1      -4.567   7.323 -10.326  1.00  0.00    +0.179 C 
ATOM     11  C   UNL     1      -5.953   6.760 -10.663  1.00  0.00    +0.198 C 
ATOM     12  C   UNL     1      -4.318   8.620 -11.122  1.00  0.00    +0.179 C 
ATOM     13  O   UNL     1      -6.162   6.471 -12.048  1.00  0.00    -0.347 OA
ATOM     14  C   UNL     1      -5.209   8.709 -12.373  1.00  0.00    +0.202 C 
BRANCH  10  15
ATOM     15  O   UNL     1      -4.510   7.511  -8.904  1.00  0.00    -0.341 OA
BRANCH  15  16
ATOM     16  C   UNL     1      -4.251   6.306  -8.172  1.00  0.00    +0.282 C 
ATOM     17  C   UNL     1      -2.511   5.229  -6.973  1.00  0.00    +0.198 C 
ATOM     18  C   UNL     1      -3.055   5.579  -5.584  1.00  0.00    +0.171 C 
ATOM     19  O   UNL     1      -2.842   6.243  -7.917  1.00  0.00    -0.347 OA
ATOM     20  C   UNL     1      -4.155   6.652  -5.667  1.00  0.00    +0.179 C 
ATOM     21  C   UNL     1      -5.073   6.368  -6.858  1.00  0.00    +0.202 C 
BRANCH  18  22
ATOM     22  O   UNL     1      -3.586   4.405  -4.947  1.00  0.00    -0.388 OA
ATOM     23  H   UNL     1      -4.551   4.408  -5.127  1.00  0.00    +0.211 HD
ENDBRANCH  18  22
BRANCH  20  24
ATOM     24  O   UNL     1      -4.937   6.648  -4.459  1.00  0.00    -0.387 OA
ATOM     25  H   UNL     1      -4.737   5.799  -4.011  1.00  0.00    +0.211 HD
ENDBRANCH  20  24
BRANCH  21  26
ATOM     26  O   UNL     1      -5.729   5.101  -6.606  1.00  0.00    -0.385 OA
ATOM     27  H   UNL     1      -5.876   5.097  -5.638  1.00  0.00    +0.211 HD
ENDBRANCH  21  26
ENDBRANCH  15  16
ENDBRANCH  10  15
BRANCH  12  28
ATOM     28  O   UNL     1      -2.926   8.676 -11.501  1.00  0.00    -0.387 OA
ATOM     29  H   UNL     1      -2.499   9.292 -10.871  1.00  0.00    +0.211 HD
ENDBRANCH  12  28
BRANCH  14  30
ATOM     30  O   UNL     1      -4.609   9.600 -13.324  1.00  0.00    -0.385 OA
ATOM     31  H   UNL     1      -4.205   9.052 -14.022  1.00  0.00    +0.211 HD
ENDBRANCH  14  30
ENDBRANCH   8   9
ENDBRANCH   3   8
BRANCH   5  32
ATOM     32  O   UNL     1      -2.482   5.098 -12.199  1.00  0.00    -0.387 OA
ATOM     33  H   UNL     1      -2.760   6.038 -12.157  1.00  0.00    +0.211 HD
ENDBRANCH   5  32
BRANCH   7  34
ATOM     34  O   UNL     1      -1.495   5.957 -14.715  1.00  0.00    -0.385 OA
ATOM     35  H   UNL     1      -2.300   6.503 -14.639  1.00  0.00    +0.211 HD
ENDBRANCH   7  34
ENDBRANCH   1   2
BRANCH   1  36
ATOM     36  C   UNL     1      -1.561   3.311 -17.895  1.00  0.00    +0.179 C 
ATOM     37  C   UNL     1      -0.765   2.139 -17.322  1.00  0.00    +0.198 C 
ATOM     38  C   UNL     1      -0.837   3.866 -19.139  1.00  0.00    +0.179 C 
ATOM     39  O   UNL     1      -0.678   1.035 -18.230  1.00  0.00    -0.347 OA
ATOM     40  C   UNL     1       0.014   2.794 -19.842  1.00  0.00    +0.202 C 
ATOM     41  C   UNL     1      -0.606   1.399 -19.617  1.00  0.00    +0.282 C 
BRANCH  38  42
ATOM     42  O   UNL     1       0.024   4.972 -18.797  1.00  0.00    -0.387 OA
ATOM     43  H   UNL     1       0.286   4.825 -17.861  1.00  0.00    +0.211 HD
ENDBRANCH  38  42
BRANCH  40  44
ATOM     44  O   UNL     1       1.359   2.848 -19.318  1.00  0.00    -0.385 OA
ATOM     45  H   UNL     1       1.890   2.322 -19.953  1.00  0.00    +0.211 HD
ENDBRANCH  40  44
BRANCH  41  46
ATOM     46  O   UNL     1       0.157   0.429 -20.334  1.00  0.00    -0.341 OA
BRANCH  46  47
ATOM     47  C   UNL     1      -0.434  -0.880 -20.370  1.00  0.00    +0.178 C 
BRANCH  47  48
ATOM     48  C   UNL     1       0.518  -1.854 -19.666  1.00  0.00    +0.191 C 
BRANCH  48  49
ATOM     49  O   UNL     1       0.785  -1.431 -18.335  1.00  0.00    -0.394 OA
ATOM     50  H   UNL     1       1.285  -0.598 -18.402  1.00  0.00    +0.210 HD
ENDBRANCH  48  49
ENDBRANCH  47  48
BRANCH  47  51
ATOM     51  C   UNL     1      -1.857  -0.831 -19.753  1.00  0.00    +0.181 C 
BRANCH  51  52
ATOM     52  C   UNL     1      -2.984  -1.269 -20.704  1.00  0.00    +0.209 C 
BRANCH  52  53
ATOM     53  C   UNL     1      -2.403  -1.543 -22.085  1.00  0.00    +0.258 C 
ATOM     54  O   UNL     1      -3.113  -1.741 -23.072  1.00  0.00    -0.300 OA
ENDBRANCH  52  53
BRANCH  52  55
ATOM     55  O   UNL     1      -3.642  -2.453 -20.250  1.00  0.00    -0.383 OA
ATOM     56  H   UNL     1      -4.515  -2.162 -19.914  1.00  0.00    +0.211 HD
ENDBRANCH  52  55
ENDBRANCH  51  52
BRANCH  51  57
ATOM     57  O   UNL     1      -1.894  -1.686 -18.589  1.00  0.00    -0.387 OA
ATOM     58  H   UNL     1      -1.538  -1.161 -17.837  1.00  0.00    +0.211 HD
ENDBRANCH  51  57
ENDBRANCH  47  51
ENDBRANCH  46  47
ENDBRANCH  41  46
ENDBRANCH   1  36
TORSDOF 24
ENDMDL
MODEL 3
REMARK VINA RESULT:    -6.901     11.018     19.293
REMARK INTER + INTRA:         -17.283
REMARK INTER:                 -14.591
REMARK INTRA:                  -2.692
REMARK UNBOUND:                -3.120
REMARK SMILES O=C[C@@H](O)[C@@H](O)[C@H](CO)O[C@H]1OC[C@@H](O[C@@H]2OC[C@H](O[C@H]3OC[C@H](O[C@H]4OC[C@H](O)[C@H](O)[C@@H]4O)[C@@H](O)[C@H]3O)[C@H](O)[C@@H]2O)[C@@H](O)[C@H]1O
REMARK SMILES IDX 15 1 16 2 19 3 18 4 39 5 17 6 41 7 20 8 21 9 24 10 23 11
REMARK SMILES IDX 35 12 22 13 37 14 25 15 26 16 28 17 29 18 27 19 31 20 33 21
REMARK SMILES IDX 30 22 32 24 34 26 36 28 38 30 40 32 42 34 14 36 13 37 43 38
REMARK SMILES IDX 12 39 45 40 11 41 44 42 46 44 10 46 7 47 8 48 9 49 5 51 3 52
REMARK SMILES IDX 2 53 1 54 4 55 6 57
REMARK H PARENT 30 23 32 25 34 27 36 29 38 31 40 33 42 35 44 43 46 45 9 50
REMARK H PARENT 4 56 6 58
ROOT
ATOM      1  O   UNL     1     -13.164   1.703  -0.103  1.00  0.00    -0.341 OA
ENDROOT
BRANCH   1   2
ATOM      2  C   UNL     1     -12.754   0.850  -1.175  1.00  0.00    +0.282 C 
ATOM      3  C   UNL     1     -10.420   0.702  -2.998  1.00  0.00    +0.179 C 
ATOM      4  C   UNL     1     -10.379   0.760  -1.463  1.00  0.00    +0.198 C 
ATOM      5  C   UNL     1     -11.867   0.890  -3.512  1.00  0.00    +0.179 C 
ATOM      6  O   UNL     1     -11.534   0.156  -0.886  1.00  0.00    -0.347 OA
ATOM      7  C   UNL     1     -12.721   1.655  -2.499  1.00  0.00    +0.202 C 
BRANCH   3   8
ATOM      8  O   UNL     1      -9.595   1.711  -3.606  1.00  0.00    -0.341 OA
BRANCH   8   9
ATOM      9  C   UNL     1      -8.622   2.289  -2.728  1.00  0.00    +0.282 C 
ATOM     10  C   UNL     1      -7.450   3.326  -5.016  1.00  0.00    +0.179 C 
ATOM     11  C   UNL     1      -6.585   2.588  -3.988  1.00  0.00    +0.198 C 
ATOM     12  C   UNL     1      -8.445   4.260  -4.295  1.00  0.00    +0.179 C 
ATOM     13  O   UNL     1      -7.317   1.802  -3.043  1.00  0.00    -0.347 OA
ATOM     14  C   UNL     1      -8.688   3.827  -2.838  1.00  0.00    +0.202 C 
BRANCH  10  15
ATOM     15  O   UNL     1      -6.565   4.022  -5.906  1.00  0.00    -0.341 OA
BRANCH  15  16
ATOM     16  C   UNL     1      -5.335   4.431  -5.294  1.00  0.00    +0.282 C 
ATOM     17  C   UNL     1      -2.991   4.167  -5.539  1.00  0.00    +0.198 C 
ATOM     18  C   UNL     1      -2.757   5.538  -6.182  1.00  0.00    +0.171 C 
ATOM     19  O   UNL     1      -4.277   3.660  -5.880  1.00  0.00    -0.347 OA
ATOM     20  C   UNL     1      -4.083   6.182  -6.625  1.00  0.00    +0.179 C 
ATOM     21  C   UNL     1      -5.158   5.949  -5.561  1.00  0.00    +0.202 C 
BRANCH  18  22
ATOM     22  O   UNL     1      -2.092   6.415  -5.257  1.00  0.00    -0.388 OA
ATOM     23  H   UNL     1      -2.461   6.211  -4.371  1.00  0.00    +0.211 HD
ENDBRANCH  18  22
BRANCH  20  24
ATOM     24  O   UNL     1      -3.904   7.598  -6.810  1.00  0.00    -0.387 OA
ATOM     25  H   UNL     1      -3.572   7.711  -7.726  1.00  0.00    +0.211 HD
ENDBRANCH  20  24
BRANCH  21  26
ATOM     26  O   UNL     1      -4.732   6.632  -4.357  1.00  0.00    -0.385 OA
ATOM     27  H   UNL     1      -4.065   6.032  -3.966  1.00  0.00    +0.211 HD
ENDBRANCH  21  26
ENDBRANCH  15  16
ENDBRANCH  10  15
BRANCH  12  28
ATOM     28  O   UNL     1      -9.691   4.267  -5.023  1.00  0.00    -0.387 OA
ATOM     29  H   UNL     1      -9.601   4.964  -5.704  1.00  0.00    +0.211 HD
ENDBRANCH  12  28
BRANCH  14  30
ATOM     30  O   UNL     1      -9.946   4.350  -2.388  1.00  0.00    -0.385 OA
ATOM     31  H   UNL     1      -9.873   4.497  -1.427  1.00  0.00    +0.211 HD
ENDBRANCH  14  30
ENDBRANCH   8   9
ENDBRANCH   3   8
BRANCH   5  32
ATOM     32  O   UNL     1     -11.879   1.582  -4.770  1.00  0.00    -0.387 OA
ATOM     33  H   UNL     1     -12.730   2.069  -4.797  1.00  0.00    +0.211 HD
ENDBRANCH   5  32
BRANCH   7  34
ATOM     34  O   UNL     1     -12.155   2.968  -2.311  1.00  0.00    -0.385 OA
ATOM     35  H   UNL     1     -12.855   3.494  -1.878  1.00  0.00    +0.211 HD
ENDBRANCH   7  34
ENDBRANCH   1   2
BRANCH   1  36
ATOM     36  C   UNL     1     -13.919   1.032   0.908  1.00  0.00    +0.179 C 
ATOM     37  C   UNL     1     -14.994   0.152   0.273  1.00  0.00    +0.198 C 
ATOM     38  C   UNL     1     -14.585   2.071   1.833  1.00  0.00    +0.179 C 
ATOM     39  O   UNL     1     -15.721  -0.616   1.240  1.00  0.00    -0.347 OA
ATOM     40  C   UNL     1     -15.931   1.576   2.389  1.00  0.00    +0.202 C 
ATOM     41  C   UNL     1     -15.919   0.037   2.502  1.00  0.00    +0.282 C 
BRANCH  38  42
ATOM     42  O   UNL     1     -14.814   3.319   1.145  1.00  0.00    -0.387 OA
ATOM     43  H   UNL     1     -15.314   3.881   1.776  1.00  0.00    +0.211 HD
ENDBRANCH  38  42
BRANCH  40  44
ATOM     44  O   UNL     1     -16.990   2.017   1.512  1.00  0.00    -0.385 OA
ATOM     45  H   UNL     1     -17.762   1.467   1.764  1.00  0.00    +0.211 HD
ENDBRANCH  40  44
BRANCH  41  46
ATOM     46  O   UNL     1     -17.148  -0.397   3.084  1.00  0.00    -0.341 OA
BRANCH  46  47
ATOM     47  C   UNL     1     -17.018  -0.935   4.410  1.00  0.00    +0.178 C 
BRANCH  47  48
ATOM     48  C   UNL     1     -17.747   0.001   5.380  1.00  0.00    +0.191 C 
BRANCH  48  49
ATOM     49  O   UNL     1     -17.183  -0.075   6.683  1.00  0.00    -0.394 OA
ATOM     50  H   UNL     1     -16.727   0.772   6.839  1.00  0.00    +0.210 HD
ENDBRANCH  48  49
ENDBRANCH  47  48
BRANCH  47  51
ATOM     51  C   UNL     1     -17.536  -2.398   4.436  1.00  0.00    +0.181 C 
BRANCH  51  52
ATOM     52  C   UNL     1     -16.701  -3.390   3.608  1.00  0.00    +0.209 C 
BRANCH  52  53
ATOM     53  C   UNL     1     -16.981  -4.809   4.085  1.00  0.00    +0.258 C 
ATOM     54  O   UNL     1     -18.099  -5.321   4.008  1.00  0.00    -0.300 OA
ENDBRANCH  52  53
BRANCH  52  55
ATOM     55  O   UNL     1     -17.002  -3.315   2.214  1.00  0.00    -0.383 OA
ATOM     56  H   UNL     1     -16.331  -2.715   1.827  1.00  0.00    +0.211 HD
ENDBRANCH  52  55
ENDBRANCH  51  52
BRANCH  51  57
ATOM     57  O   UNL     1     -17.560  -2.864   5.804  1.00  0.00    -0.387 OA
ATOM     58  H   UNL     1     -17.032  -2.225   6.333  1.00  0.00    +0.211 HD
ENDBRANCH  51  57
ENDBRANCH  47  51
ENDBRANCH  46  47
ENDBRANCH  41  46
ENDBRANCH   1  36
TORSDOF 24
ENDMDL
MODEL 4
REMARK VINA RESULT:    -6.753     10.922     19.436
REMARK INTER + INTRA:         -16.979
REMARK INTER:                 -14.530
REMARK INTRA:                  -2.449
REMARK UNBOUND:                -3.120
REMARK SMILES O=C[C@@H](O)[C@@H](O)[C@H](CO)O[C@H]1OC[C@@H](O[C@@H]2OC[C@H](O[C@H]3OC[C@H](O[C@H]4OC[C@H](O)[C@H](O)[C@@H]4O)[C@@H](O)[C@H]3O)[C@H](O)[C@@H]2O)[C@@H](O)[C@H]1O
REMARK SMILES IDX 15 1 16 2 19 3 18 4 39 5 17 6 41 7 20 8 21 9 24 10 23 11
REMARK SMILES IDX 35 12 22 13 37 14 25 15 26 16 28 17 29 18 27 19 31 20 33 21
REMARK SMILES IDX 30 22 32 24 34 26 36 28 38 30 40 32 42 34 14 36 13 37 43 38
REMARK SMILES IDX 12 39 45 40 11 41 44 42 46 44 10 46 7 47 8 48 9 49 5 51 3 52
REMARK SMILES IDX 2 53 1 54 4 55 6 57
REMARK H PARENT 30 23 32 25 34 27 36 29 38 31 40 33 42 35 44 43 46 45 9 50
REMARK H PARENT 4 56 6 58
ROOT
ATOM      1  O   UNL     1     -13.420   1.850  -0.371  1.00  0.00    -0.341 OA
ENDROOT
BRANCH   1   2
ATOM      2  C   UNL     1     -12.973   0.976  -1.411  1.00  0.00    +0.282 C 
ATOM      3  C   UNL     1     -10.552   0.763  -3.111  1.00  0.00    +0.179 C 
ATOM      4  C   UNL     1     -10.588   0.839  -1.576  1.00  0.00    +0.198 C 
ATOM      5  C   UNL     1     -11.968   0.970  -3.700  1.00  0.00    +0.179 C 
ATOM      6  O   UNL     1     -11.781   0.264  -1.052  1.00  0.00    -0.347 OA
ATOM      7  C   UNL     1     -12.857   1.763  -2.741  1.00  0.00    +0.202 C 
BRANCH   3   8
ATOM      8  O   UNL     1      -9.679   1.749  -3.688  1.00  0.00    -0.341 OA
BRANCH   8   9
ATOM      9  C   UNL     1      -8.674   2.244  -2.796  1.00  0.00    +0.282 C 
ATOM     10  C   UNL     1      -7.479   3.333  -5.048  1.00  0.00    +0.179 C 
ATOM     11  C   UNL     1      -6.638   2.513  -4.063  1.00  0.00    +0.198 C 
ATOM     12  C   UNL     1      -8.427   4.274  -4.275  1.00  0.00    +0.179 C 
ATOM     13  O   UNL     1      -7.394   1.717  -3.147  1.00  0.00    -0.347 OA
ATOM     14  C   UNL     1      -8.675   3.787  -2.837  1.00  0.00    +0.202 C 
BRANCH  10  15
ATOM     15  O   UNL     1      -6.573   4.030  -5.916  1.00  0.00    -0.341 OA
BRANCH  15  16
ATOM     16  C   UNL     1      -5.349   4.419  -5.280  1.00  0.00    +0.282 C 
ATOM     17  C   UNL     1      -3.009   4.067  -5.442  1.00  0.00    +0.198 C 
ATOM     18  C   UNL     1      -2.708   5.405  -6.125  1.00  0.00    +0.171 C 
ATOM     19  O   UNL     1      -4.302   3.592  -5.805  1.00  0.00    -0.347 OA
ATOM     20  C   UNL     1      -3.997   6.077  -6.632  1.00  0.00    +0.179 C 
ATOM     21  C   UNL     1      -5.111   5.920  -5.595  1.00  0.00    +0.202 C 
BRANCH  18  22
ATOM     22  O   UNL     1      -2.041   6.291  -5.211  1.00  0.00    -0.388 OA
ATOM     23  H   UNL     1      -1.752   7.065  -5.740  1.00  0.00    +0.211 HD
ENDBRANCH  18  22
BRANCH  20  24
ATOM     24  O   UNL     1      -3.762   7.478  -6.861  1.00  0.00    -0.387 OA
ATOM     25  H   UNL     1      -4.631   7.862  -7.105  1.00  0.00    +0.211 HD
ENDBRANCH  20  24
BRANCH  21  26
ATOM     26  O   UNL     1      -4.698   6.631  -4.403  1.00  0.00    -0.385 OA
ATOM     27  H   UNL     1      -4.839   5.986  -3.679  1.00  0.00    +0.211 HD
ENDBRANCH  21  26
ENDBRANCH  15  16
ENDBRANCH  10  15
BRANCH  12  28
ATOM     28  O   UNL     1      -9.678   4.367  -4.988  1.00  0.00    -0.387 OA
ATOM     29  H   UNL     1      -9.548   5.055  -5.673  1.00  0.00    +0.211 HD
ENDBRANCH  12  28
BRANCH  14  30
ATOM     30  O   UNL     1      -9.906   4.342  -2.350  1.00  0.00    -0.385 OA
ATOM     31  H   UNL     1     -10.617   3.716  -2.578  1.00  0.00    +0.211 HD
ENDBRANCH  14  30
ENDBRANCH   8   9
ENDBRANCH   3   8
BRANCH   5  32
ATOM     32  O   UNL     1     -11.903   1.646  -4.965  1.00  0.00    -0.387 OA
ATOM     33  H   UNL     1     -11.261   1.136  -5.506  1.00  0.00    +0.211 HD
ENDBRANCH   5  32
BRANCH   7  34
ATOM     34  O   UNL     1     -12.277   3.068  -2.539  1.00  0.00    -0.385 OA
ATOM     35  H   UNL     1     -12.796   3.476  -1.819  1.00  0.00    +0.211 HD
ENDBRANCH   7  34
ENDBRANCH   1   2
BRANCH   1  36
ATOM     36  C   UNL     1     -13.711   1.179   0.857  1.00  0.00    +0.179 C 
ATOM     37  C   UNL     1     -14.894   0.229   0.676  1.00  0.00    +0.198 C 
ATOM     38  C   UNL     1     -14.048   2.217   1.948  1.00  0.00    +0.179 C 
ATOM     39  O   UNL     1     -15.170  -0.539   1.853  1.00  0.00    -0.347 OA
ATOM     40  C   UNL     1     -15.065   1.679   2.968  1.00  0.00    +0.202 C 
ATOM     41  C   UNL     1     -14.926   0.146   3.091  1.00  0.00    +0.282 C 
BRANCH  38  42
ATOM     42  O   UNL     1     -14.583   3.428   1.375  1.00  0.00    -0.387 OA
ATOM     43  H   UNL     1     -13.915   4.125   1.557  1.00  0.00    +0.211 HD
ENDBRANCH  38  42
BRANCH  40  44
ATOM     44  O   UNL     1     -16.395   2.040   2.537  1.00  0.00    -0.385 OA
ATOM     45  H   UNL     1     -16.667   2.753   3.153  1.00  0.00    +0.211 HD
ENDBRANCH  40  44
BRANCH  41  46
ATOM     46  O   UNL     1     -15.829  -0.324   4.091  1.00  0.00    -0.341 OA
BRANCH  46  47
ATOM     47  C   UNL     1     -16.942  -1.075   3.578  1.00  0.00    +0.178 C 
BRANCH  47  48
ATOM     48  C   UNL     1     -16.592  -2.565   3.660  1.00  0.00    +0.191 C 
BRANCH  48  49
ATOM     49  O   UNL     1     -16.762  -3.197   2.398  1.00  0.00    -0.394 OA
ATOM     50  H   UNL     1     -17.529  -2.772   1.974  1.00  0.00    +0.210 HD
ENDBRANCH  48  49
ENDBRANCH  47  48
BRANCH  47  51
ATOM     51  C   UNL     1     -18.235  -0.687   4.346  1.00  0.00    +0.181 C 
BRANCH  51  52
ATOM     52  C   UNL     1     -18.034   0.359   5.455  1.00  0.00    +0.209 C 
BRANCH  52  53
ATOM     53  C   UNL     1     -19.392   0.823   5.965  1.00  0.00    +0.258 C 
ATOM     54  O   UNL     1     -20.325   0.042   6.160  1.00  0.00    -0.300 OA
ENDBRANCH  52  53
BRANCH  52  55
ATOM     55  O   UNL     1     -17.293  -0.162   6.559  1.00  0.00    -0.383 OA
ATOM     56  H   UNL     1     -17.750   0.158   7.364  1.00  0.00    +0.211 HD
ENDBRANCH  52  55
ENDBRANCH  51  52
BRANCH  51  57
ATOM     57  O   UNL     1     -19.200  -0.166   3.406  1.00  0.00    -0.387 OA
ATOM     58  H   UNL     1     -19.481  -0.917   2.838  1.00  0.00    +0.211 HD
ENDBRANCH  51  57
ENDBRANCH  47  51
ENDBRANCH  46  47
ENDBRANCH  41  46
ENDBRANCH   1  36
TORSDOF 24
ENDMDL
MODEL 5
REMARK VINA RESULT:    -6.369      6.624     11.302
REMARK INTER + INTRA:         -16.192
REMARK INTER:                 -13.734
REMARK INTRA:                  -2.459
REMARK UNBOUND:                -3.120
REMARK SMILES O=C[C@@H](O)[C@@H](O)[C@H](CO)O[C@H]1OC[C@@H](O[C@@H]2OC[C@H](O[C@H]3OC[C@H](O[C@H]4OC[C@H](O)[C@H](O)[C@@H]4O)[C@@H](O)[C@H]3O)[C@H](O)[C@@H]2O)[C@@H](O)[C@H]1O
REMARK SMILES IDX 15 1 16 2 19 3 18 4 39 5 17 6 41 7 20 8 21 9 24 10 23 11
REMARK SMILES IDX 35 12 22 13 37 14 25 15 26 16 28 17 29 18 27 19 31 20 33 21
REMARK SMILES IDX 30 22 32 24 34 26 36 28 38 30 40 32 42 34 14 36 13 37 43 38
REMARK SMILES IDX 12 39 45 40 11 41 44 42 46 44 10 46 7 47 8 48 9 49 5 51 3 52
REMARK SMILES IDX 2 53 1 54 4 55 6 57
REMARK H PARENT 30 23 32 25 34 27 36 29 38 31 40 33 42 35 44 43 46 45 9 50
REMARK H PARENT 4 56 6 58
ROOT
ATOM      1  O   UNL     1      -6.804   5.926 -12.113  1.00  0.00    -0.341 OA
ENDROOT
BRANCH   1   2
ATOM      2  C   UNL     1      -7.327   7.209 -12.469  1.00  0.00    +0.282 C 
ATOM      3  C   UNL     1      -9.252   8.233 -14.479  1.00  0.00    +0.179 C 
ATOM      4  C   UNL     1      -9.501   7.103 -13.467  1.00  0.00    +0.198 C 
ATOM      5  C   UNL     1      -7.775   8.692 -14.431  1.00  0.00    +0.179 C 
ATOM      6  O   UNL     1      -8.745   7.294 -12.275  1.00  0.00    -0.347 OA
ATOM      7  C   UNL     1      -6.866   7.582 -13.901  1.00  0.00    +0.202 C 
BRANCH   3   8
ATOM      8  O   UNL     1      -9.553   7.836 -15.828  1.00  0.00    -0.341 OA
BRANCH   8   9
ATOM      9  C   UNL     1     -10.930   7.976 -16.194  1.00  0.00    +0.282 C 
ATOM     10  C   UNL     1     -10.299  10.596 -16.842  1.00  0.00    +0.179 C 
ATOM     11  C   UNL     1     -11.519  10.305 -15.961  1.00  0.00    +0.198 C 
ATOM     12  C   UNL     1     -10.239   9.588 -18.008  1.00  0.00    +0.179 C 
ATOM     13  O   UNL     1     -11.555   8.988 -15.404  1.00  0.00    -0.347 OA
ATOM     14  C   UNL     1     -11.025   8.302 -17.699  1.00  0.00    +0.202 C 
BRANCH  10  15
ATOM     15  O   UNL     1     -10.395  11.960 -17.278  1.00  0.00    -0.341 OA
BRANCH  15  16
ATOM     16  C   UNL     1      -9.244  12.751 -16.955  1.00  0.00    +0.282 C 
ATOM     17  C   UNL     1      -8.661  14.957 -16.308  1.00  0.00    +0.198 C 
ATOM     18  C   UNL     1      -8.453  14.623 -14.827  1.00  0.00    +0.171 C 
ATOM     19  O   UNL     1      -9.662  14.121 -16.880  1.00  0.00    -0.347 OA
ATOM     20  C   UNL     1      -9.020  13.235 -14.481  1.00  0.00    +0.179 C 
ATOM     21  C   UNL     1      -8.689  12.242 -15.598  1.00  0.00    +0.202 C 
BRANCH  18  22
ATOM     22  O   UNL     1      -7.053  14.657 -14.501  1.00  0.00    -0.388 OA
ATOM     23  H   UNL     1      -6.963  14.218 -13.628  1.00  0.00    +0.211 HD
ENDBRANCH  18  22
BRANCH  20  24
ATOM     24  O   UNL     1      -8.445  12.764 -13.248  1.00  0.00    -0.387 OA
ATOM     25  H   UNL     1      -9.168  12.305 -12.771  1.00  0.00    +0.211 HD
ENDBRANCH  20  24
BRANCH  21  26
ATOM     26  O   UNL     1      -7.248  12.115 -15.652  1.00  0.00    -0.385 OA
ATOM     27  H   UNL     1      -7.094  11.434 -16.340  1.00  0.00    +0.211 HD
ENDBRANCH  21  26
ENDBRANCH  15  16
ENDBRANCH  10  15
BRANCH  12  28
ATOM     28  O   UNL     1      -8.857   9.268 -18.280  1.00  0.00    -0.387 OA
ATOM     29  H   UNL     1      -8.360   9.518 -17.474  1.00  0.00    +0.211 HD
ENDBRANCH  12  28
BRANCH  14  30
ATOM     30  O   UNL     1     -10.533   7.232 -18.518  1.00  0.00    -0.385 OA
ATOM     31  H   UNL     1     -10.312   6.489 -17.926  1.00  0.00    +0.211 HD
ENDBRANCH  14  30
ENDBRANCH   8   9
ENDBRANCH   3   8
BRANCH   5  32
ATOM     32  O   UNL     1      -7.324   9.104 -15.730  1.00  0.00    -0.387 OA
ATOM     33  H   UNL     1      -6.536   9.667 -15.571  1.00  0.00    +0.211 HD
ENDBRANCH   5  32
BRANCH   7  34
ATOM     34  O   UNL     1      -6.939   6.453 -14.795  1.00  0.00    -0.385 OA
ATOM     35  H   UNL     1      -6.244   6.606 -15.465  1.00  0.00    +0.211 HD
ENDBRANCH   7  34
ENDBRANCH   1   2
BRANCH   1  36
ATOM     36  C   UNL     1      -6.231   5.884 -10.805  1.00  0.00    +0.179 C 
ATOM     37  C   UNL     1      -6.104   7.295 -10.233  1.00  0.00    +0.198 C 
ATOM     38  C   UNL     1      -4.835   5.228 -10.871  1.00  0.00    +0.179 C 
ATOM     39  O   UNL     1      -5.620   7.303  -8.885  1.00  0.00    -0.347 OA
ATOM     40  C   UNL     1      -3.875   5.798  -9.813  1.00  0.00    +0.202 C 
ATOM     41  C   UNL     1      -4.672   6.269  -8.578  1.00  0.00    +0.282 C 
BRANCH  38  42
ATOM     42  O   UNL     1      -4.232   5.406 -12.169  1.00  0.00    -0.387 OA
ATOM     43  H   UNL     1      -4.947   5.233 -12.820  1.00  0.00    +0.211 HD
ENDBRANCH  38  42
BRANCH  40  44
ATOM     44  O   UNL     1      -3.135   6.894 -10.394  1.00  0.00    -0.385 OA
ATOM     45  H   UNL     1      -2.740   6.518 -11.208  1.00  0.00    +0.211 HD
ENDBRANCH  40  44
BRANCH  41  46
ATOM     46  O   UNL     1      -3.759   6.729  -7.582  1.00  0.00    -0.341 OA
BRANCH  46  47
ATOM     47  C   UNL     1      -3.516   5.788  -6.523  1.00  0.00    +0.178 C 
BRANCH  47  48
ATOM     48  C   UNL     1      -2.393   6.343  -5.640  1.00  0.00    +0.191 C 
BRANCH  48  49
ATOM     49  O   UNL     1      -2.651   7.693  -5.276  1.00  0.00    -0.394 OA
ATOM     50  H   UNL     1      -3.620   7.791  -5.238  1.00  0.00    +0.210 HD
ENDBRANCH  48  49
ENDBRANCH  47  48
BRANCH  47  51
ATOM     51  C   UNL     1      -4.838   5.504  -5.759  1.00  0.00    +0.181 C 
BRANCH  51  52
ATOM     52  C   UNL     1      -5.033   4.038  -5.338  1.00  0.00    +0.209 C 
BRANCH  52  53
ATOM     53  C   UNL     1      -3.731   3.274  -5.545  1.00  0.00    +0.258 C 
ATOM     54  O   UNL     1      -3.708   2.086  -5.869  1.00  0.00    -0.300 OA
ENDBRANCH  52  53
BRANCH  52  55
ATOM     55  O   UNL     1      -5.412   3.917  -3.967  1.00  0.00    -0.383 OA
ATOM     56  H   UNL     1      -5.307   4.811  -3.580  1.00  0.00    +0.211 HD
ENDBRANCH  52  55
ENDBRANCH  51  52
BRANCH  51  57
ATOM     57  O   UNL     1      -4.878   6.322  -4.569  1.00  0.00    -0.387 OA
ATOM     58  H   UNL     1      -5.685   6.063  -4.071  1.00  0.00    +0.211 HD
ENDBRANCH  51  57
ENDBRANCH  47  51
ENDBRANCH  46  47
ENDBRANCH  41  46
ENDBRANCH   1  36
TORSDOF 24
ENDMDL
MODEL 6
REMARK VINA RESULT:    -6.248      2.485     12.303
REMARK INTER + INTRA:         -15.944
REMARK INTER:                 -13.082
REMARK INTRA:                  -2.862
REMARK UNBOUND:                -3.120
REMARK SMILES O=C[C@@H](O)[C@@H](O)[C@H](CO)O[C@H]1OC[C@@H](O[C@@H]2OC[C@H](O[C@H]3OC[C@H](O[C@H]4OC[C@H](O)[C@H](O)[C@@H]4O)[C@@H](O)[C@H]3O)[C@H](O)[C@@H]2O)[C@@H](O)[C@H]1O
REMARK SMILES IDX 15 1 16 2 19 3 18 4 39 5 17 6 41 7 20 8 21 9 24 10 23 11
REMARK SMILES IDX 35 12 22 13 37 14 25 15 26 16 28 17 29 18 27 19 31 20 33 21
REMARK SMILES IDX 30 22 32 24 34 26 36 28 38 30 40 32 42 34 14 36 13 37 43 38
REMARK SMILES IDX 12 39 45 40 11 41 44 42 46 44 10 46 7 47 8 48 9 49 5 51 3 52
REMARK SMILES IDX 2 53 1 54 4 55 6 57
REMARK H PARENT 30 23 32 25 34 27 36 29 38 31 40 33 42 35 44 43 46 45 9 50
REMARK H PARENT 4 56 6 58
ROOT
ATOM      1  O   UNL     1      -2.778   2.784 -17.052  1.00  0.00    -0.341 OA
ENDROOT
BRANCH   1   2
ATOM      2  C   UNL     1      -2.590   2.845 -18.469  1.00  0.00    +0.282 C 
ATOM      3  C   UNL     1      -1.167   1.211 -20.494  1.00  0.00    +0.179 C 
ATOM      4  C   UNL     1      -2.191   0.705 -19.466  1.00  0.00    +0.198 C 
ATOM      5  C   UNL     1      -0.835   2.702 -20.244  1.00  0.00    +0.179 C 
ATOM      6  O   UNL     1      -3.148   1.710 -19.143  1.00  0.00    -0.347 OA
ATOM      7  C   UNL     1      -1.093   3.091 -18.787  1.00  0.00    +0.202 C 
BRANCH   3   8
ATOM      8  O   UNL     1       0.063   0.468 -20.453  1.00  0.00    -0.341 OA
BRANCH   8   9
ATOM      9  C   UNL     1      -0.078  -0.887 -20.011  1.00  0.00    +0.282 C 
ATOM     10  C   UNL     1       2.671  -1.075 -20.310  1.00  0.00    +0.179 C 
ATOM     11  C   UNL     1       1.765  -2.152 -20.919  1.00  0.00    +0.198 C 
ATOM     12  C   UNL     1       2.178  -0.711 -18.894  1.00  0.00    +0.179 C 
ATOM     13  O   UNL     1       0.385  -1.790 -21.015  1.00  0.00    -0.347 OA
ATOM     14  C   UNL     1       0.697  -1.073 -18.689  1.00  0.00    +0.202 C 
BRANCH  10  15
ATOM     15  O   UNL     1       4.015  -1.577 -20.330  1.00  0.00    -0.341 OA
BRANCH  15  16
ATOM     16  C   UNL     1       4.568  -1.798 -19.026  1.00  0.00    +0.282 C 
ATOM     17  C   UNL     1       5.707  -3.462 -17.777  1.00  0.00    +0.198 C 
ATOM     18  C   UNL     1       7.091  -2.818 -17.907  1.00  0.00    +0.171 C 
ATOM     19  O   UNL     1       4.910  -3.187 -18.926  1.00  0.00    -0.347 OA
ATOM     20  C   UNL     1       7.097  -1.714 -18.979  1.00  0.00    +0.179 C 
ATOM     21  C   UNL     1       5.814  -0.885 -18.883  1.00  0.00    +0.202 C 
BRANCH  18  22
ATOM     22  O   UNL     1       7.498  -2.256 -16.648  1.00  0.00    -0.388 OA
ATOM     23  H   UNL     1       7.183  -1.327 -16.646  1.00  0.00    +0.211 HD
ENDBRANCH  18  22
BRANCH  20  24
ATOM     24  O   UNL     1       8.231  -0.849 -18.787  1.00  0.00    -0.387 OA
ATOM     25  H   UNL     1       7.877  -0.022 -18.397  1.00  0.00    +0.211 HD
ENDBRANCH  20  24
BRANCH  21  26
ATOM     26  O   UNL     1       5.818  -0.228 -17.592  1.00  0.00    -0.385 OA
ATOM     27  H   UNL     1       6.628  -0.565 -17.155  1.00  0.00    +0.211 HD
ENDBRANCH  21  26
ENDBRANCH  15  16
ENDBRANCH  10  15
BRANCH  12  28
ATOM     28  O   UNL     1       2.375   0.703 -18.679  1.00  0.00    -0.387 OA
ATOM     29  H   UNL     1       2.340   0.836 -17.710  1.00  0.00    +0.211 HD
ENDBRANCH  12  28
BRANCH  14  30
ATOM     30  O   UNL     1       0.154  -0.279 -17.625  1.00  0.00    -0.385 OA
ATOM     31  H   UNL     1       0.518   0.621 -17.718  1.00  0.00    +0.211 HD
ENDBRANCH  14  30
ENDBRANCH   8   9
ENDBRANCH   3   8
BRANCH   5  32
ATOM     32  O   UNL     1       0.530   2.988 -20.583  1.00  0.00    -0.387 OA
ATOM     33  H   UNL     1       0.504   3.380 -21.482  1.00  0.00    +0.211 HD
ENDBRANCH   5  32
BRANCH   7  34
ATOM     34  O   UNL     1      -0.232   2.309 -17.936  1.00  0.00    -0.385 OA
ATOM     35  H   UNL     1       0.665   2.672 -18.068  1.00  0.00    +0.211 HD
ENDBRANCH   7  34
ENDBRANCH   1   2
BRANCH   1  36
ATOM     36  C   UNL     1      -2.673   4.054 -16.404  1.00  0.00    +0.179 C 
ATOM     37  C   UNL     1      -2.007   3.900 -15.038  1.00  0.00    +0.198 C 
ATOM     38  C   UNL     1      -4.080   4.662 -16.225  1.00  0.00    +0.179 C 
ATOM     39  O   UNL     1      -1.792   5.157 -14.384  1.00  0.00    -0.347 OA
ATOM     40  C   UNL     1      -4.180   5.529 -14.959  1.00  0.00    +0.202 C 
ATOM     41  C   UNL     1      -2.803   6.145 -14.631  1.00  0.00    +0.282 C 
BRANCH  38  42
ATOM     42  O   UNL     1      -5.091   3.637 -16.150  1.00  0.00    -0.387 OA
ATOM     43  H   UNL     1      -5.556   3.785 -15.298  1.00  0.00    +0.211 HD
ENDBRANCH  38  42
BRANCH  40  44
ATOM     44  O   UNL     1      -4.647   4.709 -13.866  1.00  0.00    -0.385 OA
ATOM     45  H   UNL     1      -3.856   4.203 -13.584  1.00  0.00    +0.211 HD
ENDBRANCH  40  44
BRANCH  41  46
ATOM     46  O   UNL     1      -2.933   7.000 -13.496  1.00  0.00    -0.341 OA
BRANCH  46  47
ATOM     47  C   UNL     1      -2.243   6.536 -12.324  1.00  0.00    +0.178 C 
BRANCH  47  48
ATOM     48  C   UNL     1      -1.122   7.531 -12.004  1.00  0.00    +0.191 C 
BRANCH  48  49
ATOM     49  O   UNL     1      -1.622   8.860 -11.946  1.00  0.00    -0.394 OA
ATOM     50  H   UNL     1      -2.403   8.839 -11.364  1.00  0.00    +0.210 HD
ENDBRANCH  48  49
ENDBRANCH  47  48
BRANCH  47  51
ATOM     51  C   UNL     1      -3.256   6.333 -11.165  1.00  0.00    +0.181 C 
BRANCH  51  52
ATOM     52  C   UNL     1      -4.600   7.056 -11.352  1.00  0.00    +0.209 C 
BRANCH  52  53
ATOM     53  C   UNL     1      -5.515   6.736 -10.177  1.00  0.00    +0.258 C 
ATOM     54  O   UNL     1      -6.069   7.615  -9.514  1.00  0.00    -0.300 OA
ENDBRANCH  52  53
BRANCH  52  55
ATOM     55  O   UNL     1      -4.443   8.473 -11.426  1.00  0.00    -0.383 OA
ATOM     56  H   UNL     1      -3.512   8.627 -11.689  1.00  0.00    +0.211 HD
ENDBRANCH  52  55
ENDBRANCH  51  52
BRANCH  51  57
ATOM     57  O   UNL     1      -3.523   4.920 -11.017  1.00  0.00    -0.387 OA
ATOM     58  H   UNL     1      -3.802   4.588 -11.899  1.00  0.00    +0.211 HD
ENDBRANCH  51  57
ENDBRANCH  47  51
ENDBRANCH  46  47
ENDBRANCH  41  46
ENDBRANCH   1  36
TORSDOF 24
ENDMDL
MODEL 7
REMARK VINA RESULT:    -6.169      2.288     12.210
REMARK INTER + INTRA:         -15.782
REMARK INTER:                 -12.952
REMARK INTRA:                  -2.830
REMARK UNBOUND:                -3.120
REMARK SMILES O=C[C@@H](O)[C@@H](O)[C@H](CO)O[C@H]1OC[C@@H](O[C@@H]2OC[C@H](O[C@H]3OC[C@H](O[C@H]4OC[C@H](O)[C@H](O)[C@@H]4O)[C@@H](O)[C@H]3O)[C@H](O)[C@@H]2O)[C@@H](O)[C@H]1O
REMARK SMILES IDX 15 1 16 2 19 3 18 4 39 5 17 6 41 7 20 8 21 9 24 10 23 11
REMARK SMILES IDX 35 12 22 13 37 14 25 15 26 16 28 17 29 18 27 19 31 20 33 21
REMARK SMILES IDX 30 22 32 24 34 26 36 28 38 30 40 32 42 34 14 36 13 37 43 38
REMARK SMILES IDX 12 39 45 40 11 41 44 42 46 44 10 46 7 47 8 48 9 49 5 51 3 52
REMARK SMILES IDX 2 53 1 54 4 55 6 57
REMARK H PARENT 30 23 32 25 34 27 36 29 38 31 40 33 42 35 44 43 46 45 9 50
REMARK H PARENT 4 56 6 58
ROOT
ATOM      1  O   UNL     1      -3.531   3.963 -16.707  1.00  0.00    -0.341 OA
ENDROOT
BRANCH   1   2
ATOM      2  C   UNL     1      -2.823   4.285 -17.909  1.00  0.00    +0.282 C 
ATOM      3  C   UNL     1      -1.635   2.748 -20.149  1.00  0.00    +0.179 C 
ATOM      4  C   UNL     1      -3.078   2.639 -19.629  1.00  0.00    +0.198 C 
ATOM      5  C   UNL     1      -0.796   3.676 -19.239  1.00  0.00    +0.179 C 
ATOM      6  O   UNL     1      -3.532   3.876 -19.085  1.00  0.00    -0.347 OA
ATOM      7  C   UNL     1      -1.375   3.737 -17.825  1.00  0.00    +0.202 C 
BRANCH   3   8
ATOM      8  O   UNL     1      -0.979   1.470 -20.212  1.00  0.00    -0.341 OA
BRANCH   8   9
ATOM      9  C   UNL     1      -1.813   0.396 -20.660  1.00  0.00    +0.282 C 
ATOM     10  C   UNL     1       0.524  -1.076 -20.889  1.00  0.00    +0.179 C 
ATOM     11  C   UNL     1      -0.470  -1.043 -22.056  1.00  0.00    +0.198 C 
ATOM     12  C   UNL     1      -0.234  -1.233 -19.555  1.00  0.00    +0.179 C 
ATOM     13  O   UNL     1      -1.447  -0.001 -21.981  1.00  0.00    -0.347 OA
ATOM     14  C   UNL     1      -1.701  -0.782 -19.669  1.00  0.00    +0.202 C 
BRANCH  10  15
ATOM     15  O   UNL     1       1.453  -2.141 -21.141  1.00  0.00    -0.341 OA
BRANCH  15  16
ATOM     16  C   UNL     1       2.812  -1.806 -20.835  1.00  0.00    +0.282 C 
ATOM     17  C   UNL     1       4.084  -0.121 -19.753  1.00  0.00    +0.198 C 
ATOM     18  C   UNL     1       4.326  -0.924 -18.471  1.00  0.00    +0.171 C 
ATOM     19  O   UNL     1       2.829  -0.462 -20.335  1.00  0.00    -0.347 OA
ATOM     20  C   UNL     1       3.409  -2.158 -18.401  1.00  0.00    +0.179 C 
ATOM     21  C   UNL     1       3.320  -2.821 -19.777  1.00  0.00    +0.202 C 
BRANCH  18  22
ATOM     22  O   UNL     1       5.698  -1.349 -18.401  1.00  0.00    -0.388 OA
ATOM     23  H   UNL     1       6.202  -0.591 -18.037  1.00  0.00    +0.211 HD
ENDBRANCH  18  22
BRANCH  20  24
ATOM     24  O   UNL     1       3.935  -3.107 -17.455  1.00  0.00    -0.387 OA
ATOM     25  H   UNL     1       3.824  -2.697 -16.571  1.00  0.00    +0.211 HD
ENDBRANCH  20  24
BRANCH  21  26
ATOM     26  O   UNL     1       4.646  -3.292 -20.118  1.00  0.00    -0.385 OA
ATOM     27  H   UNL     1       4.726  -4.145 -19.642  1.00  0.00    +0.211 HD
ENDBRANCH  21  26
ENDBRANCH  15  16
ENDBRANCH  10  15
BRANCH  12  28
ATOM     28  O   UNL     1       0.442  -0.461 -18.539  1.00  0.00    -0.387 OA
ATOM     29  H   UNL     1      -0.099  -0.549 -17.728  1.00  0.00    +0.211 HD
ENDBRANCH  12  28
BRANCH  14  30
ATOM     30  O   UNL     1      -2.200  -0.445 -18.366  1.00  0.00    -0.385 OA
ATOM     31  H   UNL     1      -3.017  -0.959 -18.226  1.00  0.00    +0.211 HD
ENDBRANCH  14  30
ENDBRANCH   8   9
ENDBRANCH   3   8
BRANCH   5  32
ATOM     32  O   UNL     1       0.570   3.238 -19.180  1.00  0.00    -0.387 OA
ATOM     33  H   UNL     1       0.822   3.282 -18.232  1.00  0.00    +0.211 HD
ENDBRANCH   5  32
BRANCH   7  34
ATOM     34  O   UNL     1      -1.338   2.417 -17.248  1.00  0.00    -0.385 OA
ATOM     35  H   UNL     1      -0.488   2.030 -17.535  1.00  0.00    +0.211 HD
ENDBRANCH   7  34
ENDBRANCH   1   2
BRANCH   1  36
ATOM     36  C   UNL     1      -3.406   4.954 -15.685  1.00  0.00    +0.179 C 
ATOM     37  C   UNL     1      -2.567   4.420 -14.526  1.00  0.00    +0.198 C 
ATOM     38  C   UNL     1      -4.807   5.345 -15.169  1.00  0.00    +0.179 C 
ATOM     39  O   UNL     1      -2.333   5.406 -13.513  1.00  0.00    -0.347 OA
ATOM     40  C   UNL     1      -4.790   5.736 -13.682  1.00  0.00    +0.202 C 
ATOM     41  C   UNL     1      -3.414   6.329 -13.310  1.00  0.00    +0.282 C 
BRANCH  38  42
ATOM     42  O   UNL     1      -5.751   4.267 -15.341  1.00  0.00    -0.387 OA
ATOM     43  H   UNL     1      -5.336   3.483 -14.919  1.00  0.00    +0.211 HD
ENDBRANCH  38  42
BRANCH  40  44
ATOM     44  O   UNL     1      -5.075   4.566 -12.887  1.00  0.00    -0.385 OA
ATOM     45  H   UNL     1      -5.403   3.904 -13.533  1.00  0.00    +0.211 HD
ENDBRANCH  40  44
BRANCH  41  46
ATOM     46  O   UNL     1      -3.442   6.749 -11.946  1.00  0.00    -0.341 OA
BRANCH  46  47
ATOM     47  C   UNL     1      -3.286   8.166 -11.760  1.00  0.00    +0.178 C 
BRANCH  47  48
ATOM     48  C   UNL     1      -2.822   8.774 -13.088  1.00  0.00    +0.191 C 
BRANCH  48  49
ATOM     49  O   UNL     1      -3.723   9.780 -13.531  1.00  0.00    -0.394 OA
ATOM     50  H   UNL     1      -3.189  10.447 -13.997  1.00  0.00    +0.210 HD
ENDBRANCH  48  49
ENDBRANCH  47  48
BRANCH  47  51
ATOM     51  C   UNL     1      -4.608   8.772 -11.217  1.00  0.00    +0.181 C 
BRANCH  51  52
ATOM     52  C   UNL     1      -5.247   7.985 -10.060  1.00  0.00    +0.209 C 
BRANCH  52  53
ATOM     53  C   UNL     1      -6.383   7.125 -10.601  1.00  0.00    +0.258 C 
ATOM     54  O   UNL     1      -7.526   7.561 -10.749  1.00  0.00    -0.300 OA
ENDBRANCH  52  53
BRANCH  52  55
ATOM     55  O   UNL     1      -4.309   7.130  -9.407  1.00  0.00    -0.383 OA
ATOM     56  H   UNL     1      -3.680   7.724  -8.947  1.00  0.00    +0.211 HD
ENDBRANCH  52  55
ENDBRANCH  51  52
BRANCH  51  57
ATOM     57  O   UNL     1      -4.353  10.118 -10.757  1.00  0.00    -0.387 OA
ATOM     58  H   UNL     1      -4.658  10.726 -11.467  1.00  0.00    +0.211 HD
ENDBRANCH  51  57
ENDBRANCH  47  51
ENDBRANCH  46  47
ENDBRANCH  41  46
ENDBRANCH   1  36
TORSDOF 24
ENDMDL
MODEL 8
REMARK VINA RESULT:    -6.114      7.014     11.211
REMARK INTER + INTRA:         -15.669
REMARK INTER:                 -12.560
REMARK INTRA:                  -3.108
REMARK UNBOUND:                -3.120
REMARK SMILES O=C[C@@H](O)[C@@H](O)[C@H](CO)O[C@H]1OC[C@@H](O[C@@H]2OC[C@H](O[C@H]3OC[C@H](O[C@H]4OC[C@H](O)[C@H](O)[C@@H]4O)[C@@H](O)[C@H]3O)[C@H](O)[C@@H]2O)[C@@H](O)[C@H]1O
REMARK SMILES IDX 15 1 16 2 19 3 18 4 39 5 17 6 41 7 20 8 21 9 24 10 23 11
REMARK SMILES IDX 35 12 22 13 37 14 25 15 26 16 28 17 29 18 27 19 31 20 33 21
REMARK SMILES IDX 30 22 32 24 34 26 36 28 38 30 40 32 42 34 14 36 13 37 43 38
REMARK SMILES IDX 12 39 45 40 11 41 44 42 46 44 10 46 7 47 8 48 9 49 5 51 3 52
REMARK SMILES IDX 2 53 1 54 4 55 6 57
REMARK H PARENT 30 23 32 25 34 27 36 29 38 31 40 33 42 35 44 43 46 45 9 50
REMARK H PARENT 4 56 6 58
ROOT
ATOM      1  O   UNL     1     -12.451   6.592 -10.906  1.00  0.00    -0.341 OA
ENDROOT
BRANCH   1   2
ATOM      2  C   UNL     1     -12.472   5.304 -10.284  1.00  0.00    +0.282 C 
ATOM      3  C   UNL     1     -14.045   4.015  -8.125  1.00  0.00    +0.179 C 
ATOM      4  C   UNL     1     -14.607   4.731  -9.364  1.00  0.00    +0.198 C 
ATOM      5  C   UNL     1     -12.508   4.182  -8.050  1.00  0.00    +0.179 C 
ATOM      6  O   UNL     1     -13.721   4.627 -10.475  1.00  0.00    -0.347 OA
ATOM      7  C   UNL     1     -12.049   5.434  -8.799  1.00  0.00    +0.202 C 
BRANCH   3   8
ATOM      8  O   UNL     1     -14.608   4.516  -6.901  1.00  0.00    -0.341 OA
BRANCH   8   9
ATOM      9  C   UNL     1     -15.851   3.910  -6.528  1.00  0.00    +0.282 C 
ATOM     10  C   UNL     1     -14.351   2.325  -4.819  1.00  0.00    +0.179 C 
ATOM     11  C   UNL     1     -15.375   1.674  -5.757  1.00  0.00    +0.198 C 
ATOM     12  C   UNL     1     -14.949   3.601  -4.192  1.00  0.00    +0.179 C 
ATOM     13  O   UNL     1     -15.831   2.513  -6.821  1.00  0.00    -0.347 OA
ATOM     14  C   UNL     1     -16.111   4.165  -5.029  1.00  0.00    +0.202 C 
BRANCH  10  15
ATOM     15  O   UNL     1     -13.968   1.342  -3.846  1.00  0.00    -0.341 OA
BRANCH  15  16
ATOM     16  C   UNL     1     -12.565   1.053  -3.839  1.00  0.00    +0.282 C 
ATOM     17  C   UNL     1     -10.477   2.119  -3.475  1.00  0.00    +0.198 C 
ATOM     18  C   UNL     1     -10.275   1.562  -2.062  1.00  0.00    +0.171 C 
ATOM     19  O   UNL     1     -11.862   2.300  -3.756  1.00  0.00    -0.347 OA
ATOM     20  C   UNL     1     -11.573   0.943  -1.514  1.00  0.00    +0.179 C 
ATOM     21  C   UNL     1     -12.277   0.145  -2.614  1.00  0.00    +0.202 C 
BRANCH  18  22
ATOM     22  O   UNL     1      -9.238   0.567  -2.063  1.00  0.00    -0.388 OA
ATOM     23  H   UNL     1      -9.502  -0.105  -1.398  1.00  0.00    +0.211 HD
ENDBRANCH  18  22
BRANCH  20  24
ATOM     24  O   UNL     1     -11.270   0.062  -0.416  1.00  0.00    -0.387 OA
ATOM     25  H   UNL     1     -10.651   0.556   0.163  1.00  0.00    +0.211 HD
ENDBRANCH  20  24
BRANCH  21  26
ATOM     26  O   UNL     1     -11.403  -0.948  -2.984  1.00  0.00    -0.385 OA
ATOM     27  H   UNL     1     -10.508  -0.630  -2.744  1.00  0.00    +0.211 HD
ENDBRANCH  21  26
ENDBRANCH  15  16
ENDBRANCH  10  15
BRANCH  12  28
ATOM     28  O   UNL     1     -13.907   4.592  -4.064  1.00  0.00    -0.387 OA
ATOM     29  H   UNL     1     -13.591   4.770  -4.973  1.00  0.00    +0.211 HD
ENDBRANCH  12  28
BRANCH  14  30
ATOM     30  O   UNL     1     -16.278   5.560  -4.736  1.00  0.00    -0.385 OA
ATOM     31  H   UNL     1     -16.522   6.005  -5.568  1.00  0.00    +0.211 HD
ENDBRANCH  14  30
ENDBRANCH   8   9
ENDBRANCH   3   8
BRANCH   5  32
ATOM     32  O   UNL     1     -12.065   4.247  -6.687  1.00  0.00    -0.387 OA
ATOM     33  H   UNL     1     -12.873   4.403  -6.152  1.00  0.00    +0.211 HD
ENDBRANCH   5  32
BRANCH   7  34
ATOM     34  O   UNL     1     -12.639   6.592  -8.175  1.00  0.00    -0.385 OA
ATOM     35  H   UNL     1     -11.951   6.947  -7.580  1.00  0.00    +0.211 HD
ENDBRANCH   7  34
ENDBRANCH   1   2
BRANCH   1  36
ATOM     36  C   UNL     1     -11.421   6.739 -11.886  1.00  0.00    +0.179 C 
ATOM     37  C   UNL     1     -10.486   5.530 -11.860  1.00  0.00    +0.198 C 
ATOM     38  C   UNL     1     -10.612   8.021 -11.600  1.00  0.00    +0.179 C 
ATOM     39  O   UNL     1      -9.488   5.583 -12.887  1.00  0.00    -0.347 OA
ATOM     40  C   UNL     1      -9.139   7.885 -12.022  1.00  0.00    +0.202 C 
ATOM     41  C   UNL     1      -9.019   6.901 -13.205  1.00  0.00    +0.282 C 
BRANCH  38  42
ATOM     42  O   UNL     1     -10.649   8.365 -10.199  1.00  0.00    -0.387 OA
ATOM     43  H   UNL     1     -10.439   7.536  -9.717  1.00  0.00    +0.211 HD
ENDBRANCH  38  42
BRANCH  40  44
ATOM     44  O   UNL     1      -8.369   7.422 -10.891  1.00  0.00    -0.385 OA
ATOM     45  H   UNL     1      -8.484   8.122 -10.213  1.00  0.00    +0.211 HD
ENDBRANCH  40  44
BRANCH  41  46
ATOM     46  O   UNL     1      -7.657   6.843 -13.626  1.00  0.00    -0.341 OA
BRANCH  46  47
ATOM     47  C   UNL     1      -7.065   5.537 -13.534  1.00  0.00    +0.178 C 
BRANCH  47  48
ATOM     48  C   UNL     1      -6.895   4.988 -14.955  1.00  0.00    +0.191 C 
BRANCH  48  49
ATOM     49  O   UNL     1      -8.036   4.237 -15.350  1.00  0.00    -0.394 OA
ATOM     50  H   UNL     1      -8.573   4.103 -14.549  1.00  0.00    +0.210 HD
ENDBRANCH  48  49
ENDBRANCH  47  48
BRANCH  47  51
ATOM     51  C   UNL     1      -5.742   5.616 -12.726  1.00  0.00    +0.181 C 
BRANCH  51  52
ATOM     52  C   UNL     1      -4.465   5.458 -13.569  1.00  0.00    +0.209 C 
BRANCH  52  53
ATOM     53  C   UNL     1      -3.617   6.718 -13.442  1.00  0.00    +0.258 C 
ATOM     54  O   UNL     1      -2.794   6.870 -12.538  1.00  0.00    -0.300 OA
ENDBRANCH  52  53
BRANCH  52  55
ATOM     55  O   UNL     1      -3.678   4.342 -13.151  1.00  0.00    -0.383 OA
ATOM     56  H   UNL     1      -2.952   4.266 -13.805  1.00  0.00    +0.211 HD
ENDBRANCH  52  55
ENDBRANCH  51  52
BRANCH  51  57
ATOM     57  O   UNL     1      -5.679   6.892 -12.050  1.00  0.00    -0.387 OA
ATOM     58  H   UNL     1      -5.584   6.702 -11.090  1.00  0.00    +0.211 HD
ENDBRANCH  51  57
ENDBRANCH  47  51
ENDBRANCH  46  47
ENDBRANCH  41  46
ENDBRANCH   1  36
TORSDOF 24
ENDMDL
MODEL 9
REMARK VINA RESULT:    -6.086      4.596     11.902
REMARK INTER + INTRA:         -15.611
REMARK INTER:                 -12.897
REMARK INTRA:                  -2.714
REMARK UNBOUND:                -3.120
REMARK SMILES O=C[C@@H](O)[C@@H](O)[C@H](CO)O[C@H]1OC[C@@H](O[C@@H]2OC[C@H](O[C@H]3OC[C@H](O[C@H]4OC[C@H](O)[C@H](O)[C@@H]4O)[C@@H](O)[C@H]3O)[C@H](O)[C@@H]2O)[C@@H](O)[C@H]1O
REMARK SMILES IDX 15 1 16 2 19 3 18 4 39 5 17 6 41 7 20 8 21 9 24 10 23 11
REMARK SMILES IDX 35 12 22 13 37 14 25 15 26 16 28 17 29 18 27 19 31 20 33 21
REMARK SMILES IDX 30 22 32 24 34 26 36 28 38 30 40 32 42 34 14 36 13 37 43 38
REMARK SMILES IDX 12 39 45 40 11 41 44 42 46 44 10 46 7 47 8 48 9 49 5 51 3 52
REMARK SMILES IDX 2 53 1 54 4 55 6 57
REMARK H PARENT 30 23 32 25 34 27 36 29 38 31 40 33 42 35 44 43 46 45 9 50
REMARK H PARENT 4 56 6 58
ROOT
ATOM      1  O   UNL     1      -6.329   5.379 -12.532  1.00  0.00    -0.341 OA
ENDROOT
BRANCH   1   2
ATOM      2  C   UNL     1      -7.544   6.089 -12.789  1.00  0.00    +0.282 C 
ATOM      3  C   UNL     1      -9.875   5.725 -14.586  1.00  0.00    +0.179 C 
ATOM      4  C   UNL     1      -9.307   4.689 -13.604  1.00  0.00    +0.198 C 
ATOM      5  C   UNL     1      -8.966   6.976 -14.644  1.00  0.00    +0.179 C 
ATOM      6  O   UNL     1      -8.707   5.314 -12.473  1.00  0.00    -0.347 OA
ATOM      7  C   UNL     1      -7.531   6.638 -14.239  1.00  0.00    +0.202 C 
BRANCH   3   8
ATOM      8  O   UNL     1     -10.003   5.204 -15.919  1.00  0.00    -0.341 OA
BRANCH   8   9
ATOM      9  C   UNL     1     -11.310   5.343 -16.488  1.00  0.00    +0.282 C 
ATOM     10  C   UNL     1     -10.307   3.954 -18.667  1.00  0.00    +0.179 C 
ATOM     11  C   UNL     1     -11.080   5.259 -18.888  1.00  0.00    +0.198 C 
ATOM     12  C   UNL     1     -11.017   3.096 -17.599  1.00  0.00    +0.179 C 
ATOM     13  O   UNL     1     -11.245   6.064 -17.718  1.00  0.00    -0.347 OA
ATOM     14  C   UNL     1     -11.927   3.943 -16.691  1.00  0.00    +0.202 C 
BRANCH  10  15
ATOM     15  O   UNL     1     -10.193   3.297 -19.938  1.00  0.00    -0.341 OA
BRANCH  15  16
ATOM     16  C   UNL     1      -8.883   2.781 -20.205  1.00  0.00    +0.282 C 
ATOM     17  C   UNL     1      -6.805   2.410 -19.124  1.00  0.00    +0.198 C 
ATOM     18  C   UNL     1      -7.011   0.905 -18.926  1.00  0.00    +0.171 C 
ATOM     19  O   UNL     1      -8.049   3.102 -19.084  1.00  0.00    -0.347 OA
ATOM     20  C   UNL     1      -8.474   0.502 -19.184  1.00  0.00    +0.179 C 
ATOM     21  C   UNL     1      -9.014   1.248 -20.406  1.00  0.00    +0.202 C 
BRANCH  18  22
ATOM     22  O   UNL     1      -6.153   0.164 -19.810  1.00  0.00    -0.388 OA
ATOM     23  H   UNL     1      -6.718  -0.514 -20.237  1.00  0.00    +0.211 HD
ENDBRANCH  18  22
BRANCH  20  24
ATOM     24  O   UNL     1      -8.557  -0.915 -19.423  1.00  0.00    -0.387 OA
ATOM     25  H   UNL     1      -8.882  -1.015 -20.343  1.00  0.00    +0.211 HD
ENDBRANCH  20  24
BRANCH  21  26
ATOM     26  O   UNL     1      -8.242   0.816 -21.553  1.00  0.00    -0.385 OA
ATOM     27  H   UNL     1      -8.659   1.278 -22.309  1.00  0.00    +0.211 HD
ENDBRANCH  21  26
ENDBRANCH  15  16
ENDBRANCH  10  15
BRANCH  12  28
ATOM     28  O   UNL     1     -10.020   2.418 -16.805  1.00  0.00    -0.387 OA
ATOM     29  H   UNL     1     -10.220   2.642 -15.873  1.00  0.00    +0.211 HD
ENDBRANCH  12  28
BRANCH  14  30
ATOM     30  O   UNL     1     -12.135   3.255 -15.449  1.00  0.00    -0.385 OA
ATOM     31  H   UNL     1     -12.216   3.932 -14.752  1.00  0.00    +0.211 HD
ENDBRANCH  14  30
ENDBRANCH   8   9
ENDBRANCH   3   8
BRANCH   5  32
ATOM     32  O   UNL     1      -8.971   7.553 -15.959  1.00  0.00    -0.387 OA
ATOM     33  H   UNL     1      -9.881   7.896 -16.094  1.00  0.00    +0.211 HD
ENDBRANCH   5  32
BRANCH   7  34
ATOM     34  O   UNL     1      -6.999   5.674 -15.170  1.00  0.00    -0.385 OA
ATOM     35  H   UNL     1      -6.030   5.699 -15.046  1.00  0.00    +0.211 HD
ENDBRANCH   7  34
ENDBRANCH   1   2
BRANCH   1  36
ATOM     36  C   UNL     1      -5.902   5.446 -11.170  1.00  0.00    +0.179 C 
ATOM     37  C   UNL     1      -6.091   6.861 -10.623  1.00  0.00    +0.198 C 
ATOM     38  C   UNL     1      -4.414   5.051 -11.072  1.00  0.00    +0.179 C 
ATOM     39  O   UNL     1      -5.765   6.962  -9.231  1.00  0.00    -0.347 OA
ATOM     40  C   UNL     1      -3.691   5.789  -9.933  1.00  0.00    +0.202 C 
ATOM     41  C   UNL     1      -4.688   6.116  -8.801  1.00  0.00    +0.282 C 
BRANCH  38  42
ATOM     42  O   UNL     1      -3.714   5.328 -12.303  1.00  0.00    -0.387 OA
ATOM     43  H   UNL     1      -3.171   4.529 -12.484  1.00  0.00    +0.211 HD
ENDBRANCH  38  42
BRANCH  40  44
ATOM     44  O   UNL     1      -3.099   6.996 -10.459  1.00  0.00    -0.385 OA
ATOM     45  H   UNL     1      -3.838   7.456 -10.909  1.00  0.00    +0.211 HD
ENDBRANCH  40  44
BRANCH  41  46
ATOM     46  O   UNL     1      -3.985   6.737  -7.726  1.00  0.00    -0.341 OA
BRANCH  46  47
ATOM     47  C   UNL     1      -3.313   5.818  -6.849  1.00  0.00    +0.178 C 
BRANCH  47  48
ATOM     48  C   UNL     1      -2.324   6.613  -5.990  1.00  0.00    +0.191 C 
BRANCH  48  49
ATOM     49  O   UNL     1      -2.973   7.698  -5.339  1.00  0.00    -0.394 OA
ATOM     50  H   UNL     1      -3.752   7.326  -4.888  1.00  0.00    +0.210 HD
ENDBRANCH  48  49
ENDBRANCH  47  48
BRANCH  47  51
ATOM     51  C   UNL     1      -4.358   5.014  -6.029  1.00  0.00    +0.181 C 
BRANCH  51  52
ATOM     52  C   UNL     1      -3.773   3.854  -5.206  1.00  0.00    +0.209 C 
BRANCH  52  53
ATOM     53  C   UNL     1      -4.900   2.928  -4.766  1.00  0.00    +0.258 C 
ATOM     54  O   UNL     1      -5.803   3.299  -4.016  1.00  0.00    -0.300 OA
ENDBRANCH  52  53
BRANCH  52  55
ATOM     55  O   UNL     1      -2.826   3.088  -5.951  1.00  0.00    -0.383 OA
ATOM     56  H   UNL     1      -3.118   2.156  -5.877  1.00  0.00    +0.211 HD
ENDBRANCH  52  55
ENDBRANCH  51  52
BRANCH  51  57
ATOM     57  O   UNL     1      -5.034   5.913  -5.122  1.00  0.00    -0.387 OA
ATOM     58  H   UNL     1      -5.723   6.381  -5.644  1.00  0.00    +0.211 HD
ENDBRANCH  51  57
ENDBRANCH  47  51
ENDBRANCH  46  47
ENDBRANCH  41  46
ENDBRANCH   1  36
TORSDOF 24
ENDMDL
