MODEL 1
REMARK VINA RESULT:    -7.517      0.000      0.000
REMARK INTER + INTRA:         -18.456
REMARK INTER:                 -15.427
REMARK INTRA:                  -3.028
REMARK UNBOUND:                -3.028
REMARK SMILES O=C[C@@H](O)[C@@H](O)[C@H](CO)O[C@H]1OC[C@@H](O[C@@H]2OC[C@H](O[C@H]3OC[C@H](O[C@H]4OC[C@H](O)[C@H](O)[C@@H]4O)[C@@H](O)[C@H]3O)[C@H](O)[C@@H]2O)[C@@H](O)[C@H]1O
REMARK SMILES IDX 15 1 16 2 19 3 18 4 39 5 17 6 41 7 20 8 21 9 24 10 23 11
REMARK SMILES IDX 35 12 22 13 37 14 25 15 26 16 28 17 29 18 27 19 31 20 33 21
REMARK SMILES IDX 30 22 32 24 34 26 36 28 38 30 40 32 42 34 14 36 13 37 43 38
REMARK SMILES IDX 12 39 45 40 11 41 44 42 46 44 10 46 7 47 8 48 9 49 5 51 3 52
REMARK SMILES IDX 2 53 1 54 4 55 6 57
REMARK H PARENT 30 23 32 25 34 27 36 29 38 31 40 33 42 35 44 43 46 45 9 50
REMARK H PARENT 4 56 6 58
ROOT
ATOM      1  O   UNL     1      12.595  -9.031  -4.373  1.00  0.00    -0.341 OA
ENDROOT
BRANCH   1   2
ATOM      2  C   UNL     1      11.372  -8.310  -4.200  1.00  0.00    +0.282 C 
ATOM      3  C   UNL     1       8.862  -7.987  -5.747  1.00  0.00    +0.179 C 
ATOM      4  C   UNL     1       9.512  -9.315  -5.324  1.00  0.00    +0.198 C 
ATOM      5  C   UNL     1       9.780  -6.794  -5.391  1.00  0.00    +0.179 C 
ATOM      6  O   UNL     1      10.236  -9.178  -4.104  1.00  0.00    -0.347 OA
ATOM      7  C   UNL     1      11.244  -7.227  -5.303  1.00  0.00    +0.202 C 
BRANCH   3   8
ATOM      8  O   UNL     1       8.589  -7.936  -7.157  1.00  0.00    -0.341 OA
BRANCH   8   9
ATOM      9  C   UNL     1       7.217  -8.162  -7.503  1.00  0.00    +0.282 C 
ATOM     10  C   UNL     1       7.390  -5.805  -8.953  1.00  0.00    +0.179 C 
ATOM     11  C   UNL     1       6.220  -6.018  -7.986  1.00  0.00    +0.198 C 
ATOM     12  C   UNL     1       7.657  -7.099  -9.750  1.00  0.00    +0.179 C 
ATOM     13  O   UNL     1       6.404  -7.081  -7.047  1.00  0.00    -0.347 OA
ATOM     14  C   UNL     1       7.103  -8.343  -9.032  1.00  0.00    +0.202 C 
BRANCH  10  15
ATOM     15  O   UNL     1       7.064  -4.683  -9.787  1.00  0.00    -0.341 OA
BRANCH  15  16
ATOM     16  C   UNL     1       7.787  -3.491  -9.457  1.00  0.00    +0.282 C 
ATOM     17  C   UNL     1       8.731  -1.576 -10.491  1.00  0.00    +0.198 C 
ATOM     18  C   UNL     1       7.601  -0.622 -10.089  1.00  0.00    +0.171 C 
ATOM     19  O   UNL     1       8.235  -2.897 -10.683  1.00  0.00    -0.347 OA
ATOM     20  C   UNL     1       6.373  -1.395  -9.575  1.00  0.00    +0.179 C 
ATOM     21  C   UNL     1       6.821  -2.555  -8.682  1.00  0.00    +0.202 C 
BRANCH  18  22
ATOM     22  O   UNL     1       8.053   0.282  -9.067  1.00  0.00    -0.388 OA
ATOM     23  H   UNL     1       7.997  -0.210  -8.220  1.00  0.00    +0.211 HD
ENDBRANCH  18  22
BRANCH  20  24
ATOM     24  O   UNL     1       5.525  -0.516  -8.812  1.00  0.00    -0.387 OA
ATOM     25  H   UNL     1       6.013   0.330  -8.735  1.00  0.00    +0.211 HD
ENDBRANCH  20  24
BRANCH  21  26
ATOM     26  O   UNL     1       7.482  -1.983  -7.528  1.00  0.00    -0.385 OA
ATOM     27  H   UNL     1       8.369  -2.401  -7.529  1.00  0.00    +0.211 HD
ENDBRANCH  21  26
ENDBRANCH  15  16
ENDBRANCH  10  15
BRANCH  12  28
ATOM     28  O   UNL     1       9.079  -7.238  -9.953  1.00  0.00    -0.387 OA
ATOM     29  H   UNL     1       9.504  -6.849  -9.161  1.00  0.00    +0.211 HD
ENDBRANCH  12  28
BRANCH  14  30
ATOM     30  O   UNL     1       7.798  -9.510  -9.494  1.00  0.00    -0.385 OA
ATOM     31  H   UNL     1       7.254  -9.913 -10.196  1.00  0.00    +0.211 HD
ENDBRANCH  14  30
ENDBRANCH   8   9
ENDBRANCH   3   8
BRANCH   5  32
ATOM     32  O   UNL     1       9.649  -5.740  -6.357  1.00  0.00    -0.387 OA
ATOM     33  H   UNL     1       8.925  -5.165  -6.026  1.00  0.00    +0.211 HD
ENDBRANCH   5  32
BRANCH   7  34
ATOM     34  O   UNL     1      11.662  -7.725  -6.590  1.00  0.00    -0.385 OA
ATOM     35  H   UNL     1      10.997  -8.396  -6.838  1.00  0.00    +0.211 HD
ENDBRANCH   7  34
ENDBRANCH   1   2
BRANCH   1  36
ATOM     36  C   UNL     1      13.596  -8.702  -3.407  1.00  0.00    +0.179 C 
ATOM     37  C   UNL     1      14.639  -7.767  -4.020  1.00  0.00    +0.198 C 
ATOM     38  C   UNL     1      14.287  -9.992  -2.917  1.00  0.00    +0.179 C 
ATOM     39  O   UNL     1      15.616  -7.331  -3.067  1.00  0.00    -0.347 OA
ATOM     40  C   UNL     1      15.761  -9.756  -2.547  1.00  0.00    +0.202 C 
ATOM     41  C   UNL     1      15.958  -8.303  -2.067  1.00  0.00    +0.282 C 
BRANCH  38  42
ATOM     42  O   UNL     1      14.234 -11.030  -3.917  1.00  0.00    -0.387 OA
ATOM     43  H   UNL     1      13.958 -11.844  -3.440  1.00  0.00    +0.211 HD
ENDBRANCH  38  42
BRANCH  40  44
ATOM     44  O   UNL     1      16.583 -10.029  -3.703  1.00  0.00    -0.385 OA
ATOM     45  H   UNL     1      16.365  -9.311  -4.334  1.00  0.00    +0.211 HD
ENDBRANCH  40  44
BRANCH  41  46
ATOM     46  O   UNL     1      17.315  -8.125  -1.663  1.00  0.00    -0.341 OA
BRANCH  46  47
ATOM     47  C   UNL     1      17.798  -6.777  -1.787  1.00  0.00    +0.178 C 
BRANCH  47  48
ATOM     48  C   UNL     1      17.622  -6.080  -0.434  1.00  0.00    +0.191 C 
BRANCH  48  49
ATOM     49  O   UNL     1      17.869  -4.684  -0.544  1.00  0.00    -0.394 OA
ATOM     50  H   UNL     1      18.050  -4.361   0.357  1.00  0.00    +0.210 HD
ENDBRANCH  48  49
ENDBRANCH  47  48
BRANCH  47  51
ATOM     51  C   UNL     1      19.262  -6.790  -2.305  1.00  0.00    +0.181 C 
BRANCH  51  52
ATOM     52  C   UNL     1      19.443  -7.403  -3.704  1.00  0.00    +0.209 C 
BRANCH  52  53
ATOM     53  C   UNL     1      20.111  -8.766  -3.576  1.00  0.00    +0.258 C 
ATOM     54  O   UNL     1      19.465  -9.811  -3.486  1.00  0.00    -0.300 OA
ENDBRANCH  52  53
BRANCH  52  55
ATOM     55  O   UNL     1      18.198  -7.574  -4.382  1.00  0.00    -0.383 OA
ATOM     56  H   UNL     1      17.516  -7.190  -3.792  1.00  0.00    +0.211 HD
ENDBRANCH  52  55
ENDBRANCH  51  52
BRANCH  51  57
ATOM     57  O   UNL     1      19.758  -5.433  -2.342  1.00  0.00    -0.387 OA
ATOM     58  H   UNL     1      19.203  -4.908  -1.723  1.00  0.00    +0.211 HD
ENDBRANCH  51  57
ENDBRANCH  47  51
ENDBRANCH  46  47
ENDBRANCH  41  46
ENDBRANCH   1  36
TORSDOF 24
ENDMDL
MODEL 2
REMARK VINA RESULT:    -7.276      1.905     10.914
REMARK INTER + INTRA:         -17.961
REMARK INTER:                 -16.057
REMARK INTRA:                  -1.904
REMARK UNBOUND:                -3.028
REMARK SMILES O=C[C@@H](O)[C@@H](O)[C@H](CO)O[C@H]1OC[C@@H](O[C@@H]2OC[C@H](O[C@H]3OC[C@H](O[C@H]4OC[C@H](O)[C@H](O)[C@@H]4O)[C@@H](O)[C@H]3O)[C@H](O)[C@@H]2O)[C@@H](O)[C@H]1O
REMARK SMILES IDX 15 1 16 2 19 3 18 4 39 5 17 6 41 7 20 8 21 9 24 10 23 11
REMARK SMILES IDX 35 12 22 13 37 14 25 15 26 16 28 17 29 18 27 19 31 20 33 21
REMARK SMILES IDX 30 22 32 24 34 26 36 28 38 30 40 32 42 34 14 36 13 37 43 38
REMARK SMILES IDX 12 39 45 40 11 41 44 42 46 44 10 46 7 47 8 48 9 49 5 51 3 52
REMARK SMILES IDX 2 53 1 54 4 55 6 57
REMARK H PARENT 30 23 32 25 34 27 36 29 38 31 40 33 42 35 44 43 46 45 9 50
REMARK H PARENT 4 56 6 58
ROOT
ATOM      1  O   UNL     1       6.540  -6.996  -7.554  1.00  0.00    -0.341 OA
ENDROOT
BRANCH   1   2
ATOM      2  C   UNL     1       7.425  -8.038  -7.977  1.00  0.00    +0.282 C 
ATOM      3  C   UNL     1       9.027 -10.139  -6.629  1.00  0.00    +0.179 C 
ATOM      4  C   UNL     1       7.524  -9.877  -6.446  1.00  0.00    +0.198 C 
ATOM      5  C   UNL     1       9.667  -9.043  -7.515  1.00  0.00    +0.179 C 
ATOM      6  O   UNL     1       6.938  -9.341  -7.629  1.00  0.00    -0.347 OA
ATOM      7  C   UNL     1       8.858  -7.746  -7.465  1.00  0.00    +0.202 C 
BRANCH   3   8
ATOM      8  O   UNL     1       9.734 -10.169  -5.377  1.00  0.00    -0.341 OA
BRANCH   8   9
ATOM      9  C   UNL     1      10.114 -11.480  -4.944  1.00  0.00    +0.282 C 
ATOM     10  C   UNL     1      12.672 -10.445  -4.676  1.00  0.00    +0.179 C 
ATOM     11  C   UNL     1      12.461 -11.762  -5.432  1.00  0.00    +0.198 C 
ATOM     12  C   UNL     1      11.809 -10.427  -3.397  1.00  0.00    +0.179 C 
ATOM     13  O   UNL     1      11.107 -12.024  -5.813  1.00  0.00    -0.347 OA
ATOM     14  C   UNL     1      10.624 -11.405  -3.489  1.00  0.00    +0.202 C 
BRANCH  10  15
ATOM     15  O   UNL     1      14.077 -10.318  -4.412  1.00  0.00    -0.341 OA
BRANCH  15  16
ATOM     16  C   UNL     1      14.433  -9.091  -3.761  1.00  0.00    +0.282 C 
ATOM     17  C   UNL     1      15.977  -8.240  -2.174  1.00  0.00    +0.198 C 
ATOM     18  C   UNL     1      16.903  -7.591  -3.208  1.00  0.00    +0.171 C 
ATOM     19  O   UNL     1      15.356  -9.405  -2.710  1.00  0.00    -0.347 OA
ATOM     20  C   UNL     1      16.583  -8.079  -4.631  1.00  0.00    +0.179 C 
ATOM     21  C   UNL     1      15.067  -8.160  -4.828  1.00  0.00    +0.202 C 
BRANCH  18  22
ATOM     22  O   UNL     1      16.778  -6.160  -3.158  1.00  0.00    -0.388 OA
ATOM     23  H   UNL     1      16.754  -5.919  -2.207  1.00  0.00    +0.211 HD
ENDBRANCH  18  22
BRANCH  20  24
ATOM     24  O   UNL     1      17.134  -7.166  -5.598  1.00  0.00    -0.387 OA
ATOM     25  H   UNL     1      17.334  -7.703  -6.394  1.00  0.00    +0.211 HD
ENDBRANCH  20  24
BRANCH  21  26
ATOM     26  O   UNL     1      14.543  -6.815  -4.708  1.00  0.00    -0.385 OA
ATOM     27  H   UNL     1      13.948  -6.721  -5.481  1.00  0.00    +0.211 HD
ENDBRANCH  21  26
ENDBRANCH  15  16
ENDBRANCH  10  15
BRANCH  12  28
ATOM     28  O   UNL     1      11.325  -9.085  -3.178  1.00  0.00    -0.387 OA
ATOM     29  H   UNL     1      10.509  -9.176  -2.645  1.00  0.00    +0.211 HD
ENDBRANCH  12  28
BRANCH  14  30
ATOM     30  O   UNL     1       9.596 -10.997  -2.574  1.00  0.00    -0.385 OA
ATOM     31  H   UNL     1       8.739 -11.157  -3.009  1.00  0.00    +0.211 HD
ENDBRANCH  14  30
ENDBRANCH   8   9
ENDBRANCH   3   8
BRANCH   5  32
ATOM     32  O   UNL     1      11.020  -8.783  -7.112  1.00  0.00    -0.387 OA
ATOM     33  H   UNL     1      11.417  -8.259  -7.841  1.00  0.00    +0.211 HD
ENDBRANCH   5  32
BRANCH   7  34
ATOM     34  O   UNL     1       8.850  -7.255  -6.109  1.00  0.00    -0.385 OA
ATOM     35  H   UNL     1       8.113  -6.615  -6.068  1.00  0.00    +0.211 HD
ENDBRANCH   7  34
ENDBRANCH   1   2
BRANCH   1  36
ATOM     36  C   UNL     1       6.568  -5.843  -8.399  1.00  0.00    +0.179 C 
ATOM     37  C   UNL     1       7.752  -5.917  -9.361  1.00  0.00    +0.198 C 
ATOM     38  C   UNL     1       6.685  -4.571  -7.534  1.00  0.00    +0.179 C 
ATOM     39  O   UNL     1       7.774  -4.829 -10.293  1.00  0.00    -0.347 OA
ATOM     40  C   UNL     1       7.467  -3.454  -8.247  1.00  0.00    +0.202 C 
ATOM     41  C   UNL     1       7.290  -3.582  -9.775  1.00  0.00    +0.282 C 
BRANCH  38  42
ATOM     42  O   UNL     1       7.339  -4.846  -6.278  1.00  0.00    -0.387 OA
ATOM     43  H   UNL     1       6.625  -5.129  -5.665  1.00  0.00    +0.211 HD
ENDBRANCH  38  42
BRANCH  40  44
ATOM     44  O   UNL     1       8.861  -3.553  -7.883  1.00  0.00    -0.385 OA
ATOM     45  H   UNL     1       9.254  -4.129  -8.572  1.00  0.00    +0.211 HD
ENDBRANCH  40  44
BRANCH  41  46
ATOM     46  O   UNL     1       7.964  -2.498 -10.414  1.00  0.00    -0.341 OA
BRANCH  46  47
ATOM     47  C   UNL     1       7.641  -1.203  -9.880  1.00  0.00    +0.178 C 
BRANCH  47  48
ATOM     48  C   UNL     1       8.954  -0.470  -9.581  1.00  0.00    +0.191 C 
BRANCH  48  49
ATOM     49  O   UNL     1       8.704   0.811  -9.016  1.00  0.00    -0.394 OA
ATOM     50  H   UNL     1       7.760   1.002  -9.165  1.00  0.00    +0.210 HD
ENDBRANCH  48  49
ENDBRANCH  47  48
BRANCH  47  51
ATOM     51  C   UNL     1       6.706  -0.448 -10.862  1.00  0.00    +0.181 C 
BRANCH  51  52
ATOM     52  C   UNL     1       5.447   0.154 -10.214  1.00  0.00    +0.209 C 
BRANCH  52  53
ATOM     53  C   UNL     1       4.735  -0.919  -9.401  1.00  0.00    +0.258 C 
ATOM     54  O   UNL     1       4.340  -0.721  -8.250  1.00  0.00    -0.300 OA
ENDBRANCH  52  53
BRANCH  52  55
ATOM     55  O   UNL     1       5.757   1.245  -9.347  1.00  0.00    -0.383 OA
ATOM     56  H   UNL     1       6.560   0.976  -8.854  1.00  0.00    +0.211 HD
ENDBRANCH  52  55
ENDBRANCH  51  52
BRANCH  51  57
ATOM     57  O   UNL     1       7.447   0.625 -11.485  1.00  0.00    -0.387 OA
ATOM     58  H   UNL     1       6.809   1.128 -12.040  1.00  0.00    +0.211 HD
ENDBRANCH  51  57
ENDBRANCH  47  51
ENDBRANCH  46  47
ENDBRANCH  41  46
ENDBRANCH   1  36
TORSDOF 24
ENDMDL
MODEL 3
REMARK VINA RESULT:    -6.825     15.696     23.701
REMARK INTER + INTRA:         -17.036
REMARK INTER:                 -14.213
REMARK INTRA:                  -2.823
REMARK UNBOUND:                -3.028
REMARK SMILES O=C[C@@H](O)[C@@H](O)[C@H](CO)O[C@H]1OC[C@@H](O[C@@H]2OC[C@H](O[C@H]3OC[C@H](O[C@H]4OC[C@H](O)[C@H](O)[C@@H]4O)[C@@H](O)[C@H]3O)[C@H](O)[C@@H]2O)[C@@H](O)[C@H]1O
REMARK SMILES IDX 15 1 16 2 19 3 18 4 39 5 17 6 41 7 20 8 21 9 24 10 23 11
REMARK SMILES IDX 35 12 22 13 37 14 25 15 26 16 28 17 29 18 27 19 31 20 33 21
REMARK SMILES IDX 30 22 32 24 34 26 36 28 38 30 40 32 42 34 14 36 13 37 43 38
REMARK SMILES IDX 12 39 45 40 11 41 44 42 46 44 10 46 7 47 8 48 9 49 5 51 3 52
REMARK SMILES IDX 2 53 1 54 4 55 6 57
REMARK H PARENT 30 23 32 25 34 27 36 29 38 31 40 33 42 35 44 43 46 45 9 50
REMARK H PARENT 4 56 6 58
ROOT
ATOM      1  O   UNL     1      -0.245  10.454 -13.178  1.00  0.00    -0.341 OA
ENDROOT
BRANCH   1   2
ATOM      2  C   UNL     1      -1.250  10.347 -14.190  1.00  0.00    +0.282 C 
ATOM      3  C   UNL     1      -3.879  11.617 -14.714  1.00  0.00    +0.179 C 
ATOM      4  C   UNL     1      -2.549  12.342 -14.451  1.00  0.00    +0.198 C 
ATOM      5  C   UNL     1      -3.715  10.091 -14.516  1.00  0.00    +0.179 C 
ATOM      6  O   UNL     1      -1.437  11.575 -14.905  1.00  0.00    -0.347 OA
ATOM      7  C   UNL     1      -2.552   9.774 -13.575  1.00  0.00    +0.202 C 
BRANCH   3   8
ATOM      8  O   UNL     1      -4.930  12.070 -13.844  1.00  0.00    -0.341 OA
BRANCH   8   9
ATOM      9  C   UNL     1      -4.917  13.478 -13.582  1.00  0.00    +0.282 C 
ATOM     10  C   UNL     1      -7.086  12.999 -11.924  1.00  0.00    +0.179 C 
ATOM     11  C   UNL     1      -7.156  14.128 -12.959  1.00  0.00    +0.198 C 
ATOM     12  C   UNL     1      -5.707  13.003 -11.233  1.00  0.00    +0.179 C 
ATOM     13  O   UNL     1      -6.155  14.069 -13.979  1.00  0.00    -0.347 OA
ATOM     14  C   UNL     1      -4.639  13.713 -12.083  1.00  0.00    +0.202 C 
BRANCH  10  15
ATOM     15  O   UNL     1      -8.178  13.182 -11.010  1.00  0.00    -0.341 OA
BRANCH  15  16
ATOM     16  C   UNL     1      -9.021  12.030 -10.881  1.00  0.00    +0.282 C 
ATOM     17  C   UNL     1      -9.717  10.441  -9.263  1.00  0.00    +0.198 C 
ATOM     18  C   UNL     1     -11.088  11.079  -9.015  1.00  0.00    +0.171 C 
ATOM     19  O   UNL     1      -8.752  11.432  -9.606  1.00  0.00    -0.347 OA
ATOM     20  C   UNL     1     -11.167  12.491  -9.622  1.00  0.00    +0.179 C 
ATOM     21  C   UNL     1     -10.493  12.508 -10.995  1.00  0.00    +0.202 C 
BRANCH  18  22
ATOM     22  O   UNL     1     -12.126  10.262  -9.582  1.00  0.00    -0.388 OA
ATOM     23  H   UNL     1     -12.603   9.859  -8.825  1.00  0.00    +0.211 HD
ENDBRANCH  18  22
BRANCH  20  24
ATOM     24  O   UNL     1     -12.543  12.885  -9.769  1.00  0.00    -0.387 OA
ATOM     25  H   UNL     1     -12.718  13.530  -9.051  1.00  0.00    +0.211 HD
ENDBRANCH  20  24
BRANCH  21  26
ATOM     26  O   UNL     1     -11.249  11.628 -11.861  1.00  0.00    -0.385 OA
ATOM     27  H   UNL     1     -11.055  11.955 -12.763  1.00  0.00    +0.211 HD
ENDBRANCH  21  26
ENDBRANCH  15  16
ENDBRANCH  10  15
BRANCH  12  28
ATOM     28  O   UNL     1      -5.309  11.639 -10.977  1.00  0.00    -0.387 OA
ATOM     29  H   UNL     1      -4.332  11.652 -10.909  1.00  0.00    +0.211 HD
ENDBRANCH  12  28
BRANCH  14  30
ATOM     30  O   UNL     1      -3.336  13.254 -11.694  1.00  0.00    -0.385 OA
ATOM     31  H   UNL     1      -2.924  12.847 -12.479  1.00  0.00    +0.211 HD
ENDBRANCH  14  30
ENDBRANCH   8   9
ENDBRANCH   3   8
BRANCH   5  32
ATOM     32  O   UNL     1      -4.922   9.508 -14.002  1.00  0.00    -0.387 OA
ATOM     33  H   UNL     1      -4.715   9.239 -13.081  1.00  0.00    +0.211 HD
ENDBRANCH   5  32
BRANCH   7  34
ATOM     34  O   UNL     1      -2.829  10.350 -12.282  1.00  0.00    -0.385 OA
ATOM     35  H   UNL     1      -2.191  11.083 -12.181  1.00  0.00    +0.211 HD
ENDBRANCH   7  34
ENDBRANCH   1   2
BRANCH   1  36
ATOM     36  C   UNL     1       1.040   9.985 -13.593  1.00  0.00    +0.179 C 
ATOM     37  C   UNL     1       1.212   8.512 -13.224  1.00  0.00    +0.198 C 
ATOM     38  C   UNL     1       2.143  10.819 -12.909  1.00  0.00    +0.179 C 
ATOM     39  O   UNL     1       2.448   7.965 -13.701  1.00  0.00    -0.347 OA
ATOM     40  C   UNL     1       3.414   9.995 -12.645  1.00  0.00    +0.202 C 
ATOM     41  C   UNL     1       3.551   8.883 -13.706  1.00  0.00    +0.282 C 
BRANCH  38  42
ATOM     42  O   UNL     1       1.688  11.362 -11.652  1.00  0.00    -0.387 OA
ATOM     43  H   UNL     1       2.456  11.851 -11.282  1.00  0.00    +0.211 HD
ENDBRANCH  38  42
BRANCH  40  44
ATOM     44  O   UNL     1       3.339   9.430 -11.318  1.00  0.00    -0.385 OA
ATOM     45  H   UNL     1       4.162   8.905 -11.228  1.00  0.00    +0.211 HD
ENDBRANCH  40  44
BRANCH  41  46
ATOM     46  O   UNL     1       4.771   8.176 -13.485  1.00  0.00    -0.341 OA
BRANCH  46  47
ATOM     47  C   UNL     1       4.790   6.845 -14.026  1.00  0.00    +0.178 C 
BRANCH  47  48
ATOM     48  C   UNL     1       5.581   6.873 -15.338  1.00  0.00    +0.191 C 
BRANCH  48  49
ATOM     49  O   UNL     1       5.162   5.830 -16.208  1.00  0.00    -0.394 OA
ATOM     50  H   UNL     1       5.322   6.143 -17.116  1.00  0.00    +0.210 HD
ENDBRANCH  48  49
ENDBRANCH  47  48
BRANCH  47  51
ATOM     51  C   UNL     1       5.354   5.857 -12.969  1.00  0.00    +0.181 C 
BRANCH  51  52
ATOM     52  C   UNL     1       4.307   5.293 -11.994  1.00  0.00    +0.209 C 
BRANCH  52  53
ATOM     53  C   UNL     1       5.004   4.442 -10.940  1.00  0.00    +0.258 C 
ATOM     54  O   UNL     1       5.280   4.875  -9.821  1.00  0.00    -0.300 OA
ENDBRANCH  52  53
BRANCH  52  55
ATOM     55  O   UNL     1       3.578   6.325 -11.329  1.00  0.00    -0.383 OA
ATOM     56  H   UNL     1       3.668   6.142 -10.371  1.00  0.00    +0.211 HD
ENDBRANCH  52  55
ENDBRANCH  51  52
BRANCH  51  57
ATOM     57  O   UNL     1       5.978   4.746 -13.651  1.00  0.00    -0.387 OA
ATOM     58  H   UNL     1       6.934   4.771 -13.423  1.00  0.00    +0.211 HD
ENDBRANCH  51  57
ENDBRANCH  47  51
ENDBRANCH  46  47
ENDBRANCH  41  46
ENDBRANCH   1  36
TORSDOF 24
ENDMDL
MODEL 4
REMARK VINA RESULT:    -6.666      6.032     12.193
REMARK INTER + INTRA:         -16.709
REMARK INTER:                 -14.127
REMARK INTRA:                  -2.582
REMARK UNBOUND:                -3.028
REMARK SMILES O=C[C@@H](O)[C@@H](O)[C@H](CO)O[C@H]1OC[C@@H](O[C@@H]2OC[C@H](O[C@H]3OC[C@H](O[C@H]4OC[C@H](O)[C@H](O)[C@@H]4O)[C@@H](O)[C@H]3O)[C@H](O)[C@@H]2O)[C@@H](O)[C@H]1O
REMARK SMILES IDX 15 1 16 2 19 3 18 4 39 5 17 6 41 7 20 8 21 9 24 10 23 11
REMARK SMILES IDX 35 12 22 13 37 14 25 15 26 16 28 17 29 18 27 19 31 20 33 21
REMARK SMILES IDX 30 22 32 24 34 26 36 28 38 30 40 32 42 34 14 36 13 37 43 38
REMARK SMILES IDX 12 39 45 40 11 41 44 42 46 44 10 46 7 47 8 48 9 49 5 51 3 52
REMARK SMILES IDX 2 53 1 54 4 55 6 57
REMARK H PARENT 30 23 32 25 34 27 36 29 38 31 40 33 42 35 44 43 46 45 9 50
REMARK H PARENT 4 56 6 58
ROOT
ATOM      1  O   UNL     1      10.726  -9.280  -4.122  1.00  0.00    -0.341 OA
ENDROOT
BRANCH   1   2
ATOM      2  C   UNL     1      11.461 -10.472  -4.412  1.00  0.00    +0.282 C 
ATOM      3  C   UNL     1      10.816 -13.357  -4.651  1.00  0.00    +0.179 C 
ATOM      4  C   UNL     1      10.119 -12.200  -5.385  1.00  0.00    +0.198 C 
ATOM      5  C   UNL     1      11.832 -12.814  -3.618  1.00  0.00    +0.179 C 
ATOM      6  O   UNL     1      11.011 -11.113  -5.613  1.00  0.00    -0.347 OA
ATOM      7  C   UNL     1      11.464 -11.399  -3.169  1.00  0.00    +0.202 C 
BRANCH   3   8
ATOM      8  O   UNL     1       9.886 -14.206  -3.959  1.00  0.00    -0.341 OA
BRANCH   8   9
ATOM      9  C   UNL     1       8.523 -14.052  -4.371  1.00  0.00    +0.282 C 
ATOM     10  C   UNL     1       8.070 -16.494  -3.141  1.00  0.00    +0.179 C 
ATOM     11  C   UNL     1       7.562 -16.257  -4.568  1.00  0.00    +0.198 C 
ATOM     12  C   UNL     1       7.799 -15.250  -2.271  1.00  0.00    +0.179 C 
ATOM     13  O   UNL     1       8.137 -15.126  -5.229  1.00  0.00    -0.347 OA
ATOM     14  C   UNL     1       7.619 -13.980  -3.122  1.00  0.00    +0.202 C 
BRANCH  10  15
ATOM     15  O   UNL     1       7.432 -17.681  -2.646  1.00  0.00    -0.341 OA
BRANCH  15  16
ATOM     16  C   UNL     1       6.003 -17.591  -2.600  1.00  0.00    +0.282 C 
ATOM     17  C   UNL     1       4.069 -18.841  -3.171  1.00  0.00    +0.198 C 
ATOM     18  C   UNL     1       3.769 -19.303  -1.741  1.00  0.00    +0.171 C 
ATOM     19  O   UNL     1       5.471 -18.680  -3.367  1.00  0.00    -0.347 OA
ATOM     20  C   UNL     1       4.962 -19.039  -0.805  1.00  0.00    +0.179 C 
ATOM     21  C   UNL     1       5.574 -17.670  -1.111  1.00  0.00    +0.202 C 
BRANCH  18  22
ATOM     22  O   UNL     1       2.609 -18.623  -1.232  1.00  0.00    -0.388 OA
ATOM     23  H   UNL     1       2.904 -18.136  -0.433  1.00  0.00    +0.211 HD
ENDBRANCH  18  22
BRANCH  20  24
ATOM     24  O   UNL     1       4.524 -19.062   0.566  1.00  0.00    -0.387 OA
ATOM     25  H   UNL     1       4.455 -20.009   0.812  1.00  0.00    +0.211 HD
ENDBRANCH  20  24
BRANCH  21  26
ATOM     26  O   UNL     1       4.569 -16.670  -0.816  1.00  0.00    -0.385 OA
ATOM     27  H   UNL     1       4.141 -16.499  -1.681  1.00  0.00    +0.211 HD
ENDBRANCH  21  26
ENDBRANCH  15  16
ENDBRANCH  10  15
BRANCH  12  28
ATOM     28  O   UNL     1       8.896 -15.076  -1.349  1.00  0.00    -0.387 OA
ATOM     29  H   UNL     1       9.195 -14.150  -1.458  1.00  0.00    +0.211 HD
ENDBRANCH  12  28
BRANCH  14  30
ATOM     30  O   UNL     1       7.895 -12.824  -2.318  1.00  0.00    -0.385 OA
ATOM     31  H   UNL     1       7.330 -12.880  -1.525  1.00  0.00    +0.211 HD
ENDBRANCH  14  30
ENDBRANCH   8   9
ENDBRANCH   3   8
BRANCH   5  32
ATOM     32  O   UNL     1      11.910 -13.676  -2.473  1.00  0.00    -0.387 OA
ATOM     33  H   UNL     1      12.561 -14.372  -2.709  1.00  0.00    +0.211 HD
ENDBRANCH   5  32
BRANCH   7  34
ATOM     34  O   UNL     1      10.173 -11.435  -2.528  1.00  0.00    -0.385 OA
ATOM     35  H   UNL     1      10.308 -11.925  -1.695  1.00  0.00    +0.211 HD
ENDBRANCH   7  34
ENDBRANCH   1   2
BRANCH   1  36
ATOM     36  C   UNL     1       9.849  -8.876  -5.176  1.00  0.00    +0.179 C 
ATOM     37  C   UNL     1       9.704  -7.354  -5.192  1.00  0.00    +0.198 C 
ATOM     38  C   UNL     1       8.463  -9.523  -4.973  1.00  0.00    +0.179 C 
ATOM     39  O   UNL     1       8.907  -6.889  -6.288  1.00  0.00    -0.347 OA
ATOM     40  C   UNL     1       7.324  -8.631  -5.496  1.00  0.00    +0.202 C 
ATOM     41  C   UNL     1       7.832  -7.761  -6.665  1.00  0.00    +0.282 C 
BRANCH  38  42
ATOM     42  O   UNL     1       8.212  -9.804  -3.581  1.00  0.00    -0.387 OA
ATOM     43  H   UNL     1       7.674  -9.050  -3.251  1.00  0.00    +0.211 HD
ENDBRANCH  38  42
BRANCH  40  44
ATOM     44  O   UNL     1       6.842  -7.805  -4.414  1.00  0.00    -0.385 OA
ATOM     45  H   UNL     1       6.786  -8.414  -3.648  1.00  0.00    +0.211 HD
ENDBRANCH  40  44
BRANCH  41  46
ATOM     46  O   UNL     1       6.744  -6.994  -7.181  1.00  0.00    -0.341 OA
BRANCH  46  47
ATOM     47  C   UNL     1       6.973  -6.447  -8.490  1.00  0.00    +0.178 C 
BRANCH  47  48
ATOM     48  C   UNL     1       6.000  -7.119  -9.465  1.00  0.00    +0.191 C 
BRANCH  48  49
ATOM     49  O   UNL     1       4.711  -6.525  -9.389  1.00  0.00    -0.394 OA
ATOM     50  H   UNL     1       4.810  -5.710  -8.864  1.00  0.00    +0.210 HD
ENDBRANCH  48  49
ENDBRANCH  47  48
BRANCH  47  51
ATOM     51  C   UNL     1       6.851  -4.901  -8.443  1.00  0.00    +0.181 C 
BRANCH  51  52
ATOM     52  C   UNL     1       8.162  -4.163  -8.119  1.00  0.00    +0.209 C 
BRANCH  52  53
ATOM     53  C   UNL     1       8.018  -2.692  -8.485  1.00  0.00    +0.258 C 
ATOM     54  O   UNL     1       7.053  -2.015  -8.125  1.00  0.00    -0.300 OA
ENDBRANCH  52  53
BRANCH  52  55
ATOM     55  O   UNL     1       8.503  -4.252  -6.735  1.00  0.00    -0.383 OA
ATOM     56  H   UNL     1       9.457  -4.037  -6.680  1.00  0.00    +0.211 HD
ENDBRANCH  52  55
ENDBRANCH  51  52
BRANCH  51  57
ATOM     57  O   UNL     1       6.374  -4.427  -9.722  1.00  0.00    -0.387 OA
ATOM     58  H   UNL     1       7.163  -4.308 -10.296  1.00  0.00    +0.211 HD
ENDBRANCH  51  57
ENDBRANCH  47  51
ENDBRANCH  46  47
ENDBRANCH  41  46
ENDBRANCH   1  36
TORSDOF 24
ENDMDL
MODEL 5
REMARK VINA RESULT:    -6.511      2.121      4.034
REMARK INTER + INTRA:         -16.391
REMARK INTER:                 -13.382
REMARK INTRA:                  -3.008
REMARK UNBOUND:                -3.028
REMARK SMILES O=C[C@@H](O)[C@@H](O)[C@H](CO)O[C@H]1OC[C@@H](O[C@@H]2OC[C@H](O[C@H]3OC[C@H](O[C@H]4OC[C@H](O)[C@H](O)[C@@H]4O)[C@@H](O)[C@H]3O)[C@H](O)[C@@H]2O)[C@@H](O)[C@H]1O
REMARK SMILES IDX 15 1 16 2 19 3 18 4 39 5 17 6 41 7 20 8 21 9 24 10 23 11
REMARK SMILES IDX 35 12 22 13 37 14 25 15 26 16 28 17 29 18 27 19 31 20 33 21
REMARK SMILES IDX 30 22 32 24 34 26 36 28 38 30 40 32 42 34 14 36 13 37 43 38
REMARK SMILES IDX 12 39 45 40 11 41 44 42 46 44 10 46 7 47 8 48 9 49 5 51 3 52
REMARK SMILES IDX 2 53 1 54 4 55 6 57
REMARK H PARENT 30 23 32 25 34 27 36 29 38 31 40 33 42 35 44 43 46 45 9 50
REMARK H PARENT 4 56 6 58
ROOT
ATOM      1  O   UNL     1      15.216  -8.702  -4.444  1.00  0.00    -0.341 OA
ENDROOT
BRANCH   1   2
ATOM      2  C   UNL     1      13.999  -8.153  -3.931  1.00  0.00    +0.282 C 
ATOM      3  C   UNL     1      11.114  -8.428  -4.562  1.00  0.00    +0.179 C 
ATOM      4  C   UNL     1      12.100  -9.571  -4.272  1.00  0.00    +0.198 C 
ATOM      5  C   UNL     1      11.858  -7.074  -4.640  1.00  0.00    +0.179 C 
ATOM      6  O   UNL     1      13.134  -9.156  -3.384  1.00  0.00    -0.347 OA
ATOM      7  C   UNL     1      13.328  -7.269  -5.014  1.00  0.00    +0.202 C 
BRANCH   3   8
ATOM      8  O   UNL     1      10.403  -8.619  -5.796  1.00  0.00    -0.341 OA
BRANCH   8   9
ATOM      9  C   UNL     1       9.963  -9.963  -6.026  1.00  0.00    +0.282 C 
ATOM     10  C   UNL     1       7.700  -8.832  -7.158  1.00  0.00    +0.179 C 
ATOM     11  C   UNL     1       7.552  -9.942  -6.111  1.00  0.00    +0.198 C 
ATOM     12  C   UNL     1       8.833  -9.185  -8.144  1.00  0.00    +0.179 C 
ATOM     13  O   UNL     1       8.731 -10.207  -5.347  1.00  0.00    -0.347 OA
ATOM     14  C   UNL     1       9.823 -10.199  -7.544  1.00  0.00    +0.202 C 
BRANCH  10  15
ATOM     15  O   UNL     1       6.425  -8.665  -7.796  1.00  0.00    -0.341 OA
BRANCH  15  16
ATOM     16  C   UNL     1       6.001  -7.299  -7.889  1.00  0.00    +0.282 C 
ATOM     17  C   UNL     1       6.797  -5.102  -7.483  1.00  0.00    +0.198 C 
ATOM     18  C   UNL     1       7.089  -4.780  -8.952  1.00  0.00    +0.171 C 
ATOM     19  O   UNL     1       6.980  -6.491  -7.223  1.00  0.00    -0.347 OA
ATOM     20  C   UNL     1       7.055  -6.050  -9.821  1.00  0.00    +0.179 C 
ATOM     21  C   UNL     1       5.888  -6.944  -9.395  1.00  0.00    +0.202 C 
BRANCH  18  22
ATOM     22  O   UNL     1       6.127  -3.837  -9.454  1.00  0.00    -0.388 OA
ATOM     23  H   UNL     1       5.726  -3.408  -8.668  1.00  0.00    +0.211 HD
ENDBRANCH  18  22
BRANCH  20  24
ATOM     24  O   UNL     1       6.892  -5.692 -11.206  1.00  0.00    -0.387 OA
ATOM     25  H   UNL     1       5.940  -5.814 -11.406  1.00  0.00    +0.211 HD
ENDBRANCH  20  24
BRANCH  21  26
ATOM     26  O   UNL     1       4.665  -6.213  -9.656  1.00  0.00    -0.385 OA
ATOM     27  H   UNL     1       4.674  -6.070 -10.625  1.00  0.00    +0.211 HD
ENDBRANCH  21  26
ENDBRANCH  15  16
ENDBRANCH  10  15
BRANCH  12  28
ATOM     28  O   UNL     1       9.528  -7.974  -8.510  1.00  0.00    -0.387 OA
ATOM     29  H   UNL     1      10.214  -8.242  -9.155  1.00  0.00    +0.211 HD
ENDBRANCH  12  28
BRANCH  14  30
ATOM     30  O   UNL     1      11.081 -10.100  -8.228  1.00  0.00    -0.385 OA
ATOM     31  H   UNL     1      10.895 -10.134  -9.185  1.00  0.00    +0.211 HD
ENDBRANCH  14  30
ENDBRANCH   8   9
ENDBRANCH   3   8
BRANCH   5  32
ATOM     32  O   UNL     1      11.232  -6.199  -5.591  1.00  0.00    -0.387 OA
ATOM     33  H   UNL     1      10.292  -6.479  -5.631  1.00  0.00    +0.211 HD
ENDBRANCH   5  32
BRANCH   7  34
ATOM     34  O   UNL     1      13.400  -7.878  -6.319  1.00  0.00    -0.385 OA
ATOM     35  H   UNL     1      13.937  -8.685  -6.201  1.00  0.00    +0.211 HD
ENDBRANCH   7  34
ENDBRANCH   1   2
BRANCH   1  36
ATOM     36  C   UNL     1      16.330  -8.552  -3.561  1.00  0.00    +0.179 C 
ATOM     37  C   UNL     1      15.960  -7.645  -2.387  1.00  0.00    +0.198 C 
ATOM     38  C   UNL     1      17.520  -7.940  -4.328  1.00  0.00    +0.179 C 
ATOM     39  O   UNL     1      17.013  -7.535  -1.422  1.00  0.00    -0.347 OA
ATOM     40  C   UNL     1      18.402  -7.060  -3.426  1.00  0.00    +0.202 C 
ATOM     41  C   UNL     1      18.339  -7.569  -1.970  1.00  0.00    +0.282 C 
BRANCH  38  42
ATOM     42  O   UNL     1      17.074  -7.139  -5.441  1.00  0.00    -0.387 OA
ATOM     43  H   UNL     1      17.550  -7.487  -6.227  1.00  0.00    +0.211 HD
ENDBRANCH  38  42
BRANCH  40  44
ATOM     44  O   UNL     1      17.942  -5.694  -3.511  1.00  0.00    -0.385 OA
ATOM     45  H   UNL     1      17.000  -5.769  -3.774  1.00  0.00    +0.211 HD
ENDBRANCH  40  44
BRANCH  41  46
ATOM     46  O   UNL     1      19.216  -6.784  -1.164  1.00  0.00    -0.341 OA
BRANCH  46  47
ATOM     47  C   UNL     1      19.356  -7.251   0.188  1.00  0.00    +0.178 C 
BRANCH  47  48
ATOM     48  C   UNL     1      20.435  -8.340   0.207  1.00  0.00    +0.191 C 
BRANCH  48  49
ATOM     49  O   UNL     1      21.736  -7.769   0.171  1.00  0.00    -0.394 OA
ATOM     50  H   UNL     1      21.960  -7.527   1.088  1.00  0.00    +0.210 HD
ENDBRANCH  48  49
ENDBRANCH  47  48
BRANCH  47  51
ATOM     51  C   UNL     1      19.651  -6.054   1.130  1.00  0.00    +0.181 C 
BRANCH  51  52
ATOM     52  C   UNL     1      18.464  -5.099   1.345  1.00  0.00    +0.209 C 
BRANCH  52  53
ATOM     53  C   UNL     1      18.775  -3.753   0.704  1.00  0.00    +0.258 C 
ATOM     54  O   UNL     1      19.848  -3.521   0.144  1.00  0.00    -0.300 OA
ENDBRANCH  52  53
BRANCH  52  55
ATOM     55  O   UNL     1      17.257  -5.602   0.772  1.00  0.00    -0.383 OA
ATOM     56  H   UNL     1      17.317  -5.413  -0.188  1.00  0.00    +0.211 HD
ENDBRANCH  52  55
ENDBRANCH  51  52
BRANCH  51  57
ATOM     57  O   UNL     1      20.059  -6.561   2.421  1.00  0.00    -0.387 OA
ATOM     58  H   UNL     1      20.896  -7.057   2.281  1.00  0.00    +0.211 HD
ENDBRANCH  51  57
ENDBRANCH  47  51
ENDBRANCH  46  47
ENDBRANCH  41  46
ENDBRANCH   1  36
TORSDOF 24
ENDMDL
MODEL 6
REMARK VINA RESULT:    -6.452      2.128      3.233
REMARK INTER + INTRA:         -16.269
REMARK INTER:                 -13.012
REMARK INTRA:                  -3.257
REMARK UNBOUND:                -3.028
REMARK SMILES O=C[C@@H](O)[C@@H](O)[C@H](CO)O[C@H]1OC[C@@H](O[C@@H]2OC[C@H](O[C@H]3OC[C@H](O[C@H]4OC[C@H](O)[C@H](O)[C@@H]4O)[C@@H](O)[C@H]3O)[C@H](O)[C@@H]2O)[C@@H](O)[C@H]1O
REMARK SMILES IDX 15 1 16 2 19 3 18 4 39 5 17 6 41 7 20 8 21 9 24 10 23 11
REMARK SMILES IDX 35 12 22 13 37 14 25 15 26 16 28 17 29 18 27 19 31 20 33 21
REMARK SMILES IDX 30 22 32 24 34 26 36 28 38 30 40 32 42 34 14 36 13 37 43 38
REMARK SMILES IDX 12 39 45 40 11 41 44 42 46 44 10 46 7 47 8 48 9 49 5 51 3 52
REMARK SMILES IDX 2 53 1 54 4 55 6 57
REMARK H PARENT 30 23 32 25 34 27 36 29 38 31 40 33 42 35 44 43 46 45 9 50
REMARK H PARENT 4 56 6 58
ROOT
ATOM      1  O   UNL     1      14.114  -9.251  -3.443  1.00  0.00    -0.341 OA
ENDROOT
BRANCH   1   2
ATOM      2  C   UNL     1      12.688  -9.134  -3.440  1.00  0.00    +0.282 C 
ATOM      3  C   UNL     1      10.505  -9.732  -5.356  1.00  0.00    +0.179 C 
ATOM      4  C   UNL     1      11.605 -10.700  -4.891  1.00  0.00    +0.198 C 
ATOM      5  C   UNL     1      10.764  -8.309  -4.807  1.00  0.00    +0.179 C 
ATOM      6  O   UNL     1      12.036 -10.404  -3.566  1.00  0.00    -0.347 OA
ATOM      7  C   UNL     1      12.247  -8.093  -4.501  1.00  0.00    +0.202 C 
BRANCH   3   8
ATOM      8  O   UNL     1      10.419  -9.649  -6.789  1.00  0.00    -0.341 OA
BRANCH   8   9
ATOM      9  C   UNL     1       9.955 -10.845  -7.425  1.00  0.00    +0.282 C 
ATOM     10  C   UNL     1       7.701  -9.384  -8.108  1.00  0.00    +0.179 C 
ATOM     11  C   UNL     1       7.544 -10.767  -7.465  1.00  0.00    +0.198 C 
ATOM     12  C   UNL     1       8.818  -9.422  -9.171  1.00  0.00    +0.179 C 
ATOM     13  O   UNL     1       8.726 -11.275  -6.840  1.00  0.00    -0.347 OA
ATOM     14  C   UNL     1       9.796 -10.587  -8.938  1.00  0.00    +0.202 C 
BRANCH  10  15
ATOM     15  O   UNL     1       6.423  -9.008  -8.642  1.00  0.00    -0.341 OA
BRANCH  15  16
ATOM     16  C   UNL     1       6.055  -7.652  -8.358  1.00  0.00    +0.282 C 
ATOM     17  C   UNL     1       6.945  -5.678  -7.389  1.00  0.00    +0.198 C 
ATOM     18  C   UNL     1       7.241  -4.984  -8.722  1.00  0.00    +0.171 C 
ATOM     19  O   UNL     1       7.071  -7.092  -7.515  1.00  0.00    -0.347 OA
ATOM     20  C   UNL     1       7.149  -5.970  -9.900  1.00  0.00    +0.179 C 
ATOM     21  C   UNL     1       5.948  -6.900  -9.710  1.00  0.00    +0.202 C 
BRANCH  18  22
ATOM     22  O   UNL     1       6.317  -3.903  -8.936  1.00  0.00    -0.388 OA
ATOM     23  H   UNL     1       5.431  -4.314  -9.034  1.00  0.00    +0.211 HD
ENDBRANCH  18  22
BRANCH  20  24
ATOM     24  O   UNL     1       6.993  -5.246 -11.134  1.00  0.00    -0.387 OA
ATOM     25  H   UNL     1       6.589  -4.386 -10.894  1.00  0.00    +0.211 HD
ENDBRANCH  20  24
BRANCH  21  26
ATOM     26  O   UNL     1       4.755  -6.079  -9.745  1.00  0.00    -0.385 OA
ATOM     27  H   UNL     1       4.817  -5.603 -10.598  1.00  0.00    +0.211 HD
ENDBRANCH  21  26
ENDBRANCH  15  16
ENDBRANCH  10  15
BRANCH  12  28
ATOM     28  O   UNL     1       9.530  -8.166  -9.146  1.00  0.00    -0.387 OA
ATOM     29  H   UNL     1      10.470  -8.386  -9.307  1.00  0.00    +0.211 HD
ENDBRANCH  12  28
BRANCH  14  30
ATOM     30  O   UNL     1      11.048 -10.292  -9.574  1.00  0.00    -0.385 OA
ATOM     31  H   UNL     1      11.521 -11.137  -9.690  1.00  0.00    +0.211 HD
ENDBRANCH  14  30
ENDBRANCH   8   9
ENDBRANCH   3   8
BRANCH   5  32
ATOM     32  O   UNL     1      10.315  -7.311  -5.736  1.00  0.00    -0.387 OA
ATOM     33  H   UNL     1       9.598  -7.735  -6.255  1.00  0.00    +0.211 HD
ENDBRANCH   5  32
BRANCH   7  34
ATOM     34  O   UNL     1      12.999  -8.228  -5.724  1.00  0.00    -0.385 OA
ATOM     35  H   UNL     1      12.868  -9.152  -6.011  1.00  0.00    +0.211 HD
ENDBRANCH   7  34
ENDBRANCH   1   2
BRANCH   1  36
ATOM     36  C   UNL     1      14.755  -8.482  -2.423  1.00  0.00    +0.179 C 
ATOM     37  C   UNL     1      15.898  -7.660  -3.016  1.00  0.00    +0.198 C 
ATOM     38  C   UNL     1      15.309  -9.425  -1.335  1.00  0.00    +0.179 C 
ATOM     39  O   UNL     1      16.516  -6.799  -2.051  1.00  0.00    -0.347 OA
ATOM     40  C   UNL     1      16.587  -8.871  -0.682  1.00  0.00    +0.202 C 
ATOM     41  C   UNL     1      16.570  -7.328  -0.718  1.00  0.00    +0.282 C 
BRANCH  38  42
ATOM     42  O   UNL     1      15.607 -10.731  -1.871  1.00  0.00    -0.387 OA
ATOM     43  H   UNL     1      15.949 -10.572  -2.778  1.00  0.00    +0.211 HD
ENDBRANCH  38  42
BRANCH  40  44
ATOM     44  O   UNL     1      17.736  -9.387  -1.390  1.00  0.00    -0.385 OA
ATOM     45  H   UNL     1      18.328  -8.612  -1.493  1.00  0.00    +0.211 HD
ENDBRANCH  40  44
BRANCH  41  46
ATOM     46  O   UNL     1      17.729  -6.834  -0.047  1.00  0.00    -0.341 OA
BRANCH  46  47
ATOM     47  C   UNL     1      18.004  -5.444  -0.288  1.00  0.00    +0.178 C 
BRANCH  47  48
ATOM     48  C   UNL     1      17.438  -4.635   0.884  1.00  0.00    +0.191 C 
BRANCH  48  49
ATOM     49  O   UNL     1      17.099  -3.316   0.475  1.00  0.00    -0.394 OA
ATOM     50  H   UNL     1      16.766  -2.856   1.267  1.00  0.00    +0.210 HD
ENDBRANCH  48  49
ENDBRANCH  47  48
BRANCH  47  51
ATOM     51  C   UNL     1      19.526  -5.242  -0.517  1.00  0.00    +0.181 C 
BRANCH  51  52
ATOM     52  C   UNL     1      20.018  -5.612  -1.927  1.00  0.00    +0.209 C 
BRANCH  52  53
ATOM     53  C   UNL     1      20.776  -6.932  -1.869  1.00  0.00    +0.258 C 
ATOM     54  O   UNL     1      20.203  -8.018  -1.775  1.00  0.00    -0.300 OA
ENDBRANCH  52  53
BRANCH  52  55
ATOM     55  O   UNL     1      18.940  -5.753  -2.853  1.00  0.00    -0.383 OA
ATOM     56  H   UNL     1      18.915  -6.703  -3.093  1.00  0.00    +0.211 HD
ENDBRANCH  52  55
ENDBRANCH  51  52
BRANCH  51  57
ATOM     57  O   UNL     1      19.858  -3.857  -0.275  1.00  0.00    -0.387 OA
ATOM     58  H   UNL     1      19.091  -3.322  -0.578  1.00  0.00    +0.211 HD
ENDBRANCH  51  57
ENDBRANCH  47  51
ENDBRANCH  46  47
ENDBRANCH  41  46
ENDBRANCH   1  36
TORSDOF 24
ENDMDL
MODEL 7
REMARK VINA RESULT:    -6.350      6.227     12.623
REMARK INTER + INTRA:         -16.060
REMARK INTER:                 -14.021
REMARK INTRA:                  -2.040
REMARK UNBOUND:                -3.028
REMARK SMILES O=C[C@@H](O)[C@@H](O)[C@H](CO)O[C@H]1OC[C@@H](O[C@@H]2OC[C@H](O[C@H]3OC[C@H](O[C@H]4OC[C@H](O)[C@H](O)[C@@H]4O)[C@@H](O)[C@H]3O)[C@H](O)[C@@H]2O)[C@@H](O)[C@H]1O
REMARK SMILES IDX 15 1 16 2 19 3 18 4 39 5 17 6 41 7 20 8 21 9 24 10 23 11
REMARK SMILES IDX 35 12 22 13 37 14 25 15 26 16 28 17 29 18 27 19 31 20 33 21
REMARK SMILES IDX 30 22 32 24 34 26 36 28 38 30 40 32 42 34 14 36 13 37 43 38
REMARK SMILES IDX 12 39 45 40 11 41 44 42 46 44 10 46 7 47 8 48 9 49 5 51 3 52
REMARK SMILES IDX 2 53 1 54 4 55 6 57
REMARK H PARENT 30 23 32 25 34 27 36 29 38 31 40 33 42 35 44 43 46 45 9 50
REMARK H PARENT 4 56 6 58
ROOT
ATOM      1  O   UNL     1       8.062 -10.150  -4.904  1.00  0.00    -0.341 OA
ENDROOT
BRANCH   1   2
ATOM      2  C   UNL     1       9.311 -10.838  -5.022  1.00  0.00    +0.282 C 
ATOM      3  C   UNL     1      10.427 -13.399  -4.026  1.00  0.00    +0.179 C 
ATOM      4  C   UNL     1       9.112 -13.213  -4.799  1.00  0.00    +0.198 C 
ATOM      5  C   UNL     1      11.054 -12.027  -3.681  1.00  0.00    +0.179 C 
ATOM      6  O   UNL     1       9.179 -12.101  -5.687  1.00  0.00    -0.347 OA
ATOM      7  C   UNL     1       9.991 -10.928  -3.632  1.00  0.00    +0.202 C 
BRANCH   3   8
ATOM      8  O   UNL     1      10.244 -14.128  -2.801  1.00  0.00    -0.341 OA
BRANCH   8   9
ATOM      9  C   UNL     1      10.830 -15.434  -2.796  1.00  0.00    +0.282 C 
ATOM     10  C   UNL     1       9.158 -15.971  -0.651  1.00  0.00    +0.179 C 
ATOM     11  C   UNL     1      10.650 -16.311  -0.555  1.00  0.00    +0.198 C 
ATOM     12  C   UNL     1       8.615 -16.376  -2.038  1.00  0.00    +0.179 C 
ATOM     13  O   UNL     1      11.472 -15.688  -1.546  1.00  0.00    -0.347 OA
ATOM     14  C   UNL     1       9.736 -16.483  -3.087  1.00  0.00    +0.202 C 
BRANCH  10  15
ATOM     15  O   UNL     1       8.492 -16.635   0.433  1.00  0.00    -0.341 OA
BRANCH  15  16
ATOM     16  C   UNL     1       7.265 -17.270   0.054  1.00  0.00    +0.282 C 
ATOM     17  C   UNL     1       6.059 -19.282   0.407  1.00  0.00    +0.198 C 
ATOM     18  C   UNL     1       5.068 -18.682   1.411  1.00  0.00    +0.171 C 
ATOM     19  O   UNL     1       7.324 -18.634   0.495  1.00  0.00    -0.347 OA
ATOM     20  C   UNL     1       5.537 -17.301   1.902  1.00  0.00    +0.179 C 
ATOM     21  C   UNL     1       6.104 -16.495   0.732  1.00  0.00    +0.202 C 
BRANCH  18  22
ATOM     22  O   UNL     1       3.768 -18.556   0.811  1.00  0.00    -0.388 OA
ATOM     23  H   UNL     1       3.866 -18.842  -0.122  1.00  0.00    +0.211 HD
ENDBRANCH  18  22
BRANCH  20  24
ATOM     24  O   UNL     1       4.428 -16.582   2.474  1.00  0.00    -0.387 OA
ATOM     25  H   UNL     1       4.800 -16.053   3.210  1.00  0.00    +0.211 HD
ENDBRANCH  20  24
BRANCH  21  26
ATOM     26  O   UNL     1       5.024 -16.272  -0.206  1.00  0.00    -0.385 OA
ATOM     27  H   UNL     1       4.214 -16.448   0.316  1.00  0.00    +0.211 HD
ENDBRANCH  21  26
ENDBRANCH  15  16
ENDBRANCH  10  15
BRANCH  12  28
ATOM     28  O   UNL     1       7.636 -15.402  -2.458  1.00  0.00    -0.387 OA
ATOM     29  H   UNL     1       7.238 -15.048  -1.637  1.00  0.00    +0.211 HD
ENDBRANCH  12  28
BRANCH  14  30
ATOM     30  O   UNL     1       9.176 -16.334  -4.400  1.00  0.00    -0.385 OA
ATOM     31  H   UNL     1       8.502 -15.631  -4.351  1.00  0.00    +0.211 HD
ENDBRANCH  14  30
ENDBRANCH   8   9
ENDBRANCH   3   8
BRANCH   5  32
ATOM     32  O   UNL     1      11.746 -12.081  -2.424  1.00  0.00    -0.387 OA
ATOM     33  H   UNL     1      11.610 -12.992  -2.085  1.00  0.00    +0.211 HD
ENDBRANCH   5  32
BRANCH   7  34
ATOM     34  O   UNL     1       9.042 -11.243  -2.594  1.00  0.00    -0.385 OA
ATOM     35  H   UNL     1       8.672 -12.114  -2.834  1.00  0.00    +0.211 HD
ENDBRANCH   7  34
ENDBRANCH   1   2
BRANCH   1  36
ATOM     36  C   UNL     1       7.921  -9.056  -5.813  1.00  0.00    +0.179 C 
ATOM     37  C   UNL     1       9.202  -8.872  -6.627  1.00  0.00    +0.198 C 
ATOM     38  C   UNL     1       7.622  -7.764  -5.025  1.00  0.00    +0.179 C 
ATOM     39  O   UNL     1       9.082  -7.846  -7.619  1.00  0.00    -0.347 OA
ATOM     40  C   UNL     1       8.199  -6.516  -5.716  1.00  0.00    +0.202 C 
ATOM     41  C   UNL     1       8.253  -6.737  -7.242  1.00  0.00    +0.282 C 
BRANCH  38  42
ATOM     42  O   UNL     1       8.157  -7.826  -3.687  1.00  0.00    -0.387 OA
ATOM     43  H   UNL     1       8.415  -8.764  -3.549  1.00  0.00    +0.211 HD
ENDBRANCH  38  42
BRANCH  40  44
ATOM     44  O   UNL     1       9.519  -6.259  -5.189  1.00  0.00    -0.385 OA
ATOM     45  H   UNL     1       9.984  -5.788  -5.913  1.00  0.00    +0.211 HD
ENDBRANCH  40  44
BRANCH  41  46
ATOM     46  O   UNL     1       8.725  -5.544  -7.869  1.00  0.00    -0.341 OA
BRANCH  46  47
ATOM     47  C   UNL     1       7.728  -4.840  -8.627  1.00  0.00    +0.178 C 
BRANCH  47  48
ATOM     48  C   UNL     1       6.558  -5.796  -8.882  1.00  0.00    +0.191 C 
BRANCH  48  49
ATOM     49  O   UNL     1       5.629  -5.230  -9.799  1.00  0.00    -0.394 OA
ATOM     50  H   UNL     1       6.152  -4.862 -10.534  1.00  0.00    +0.210 HD
ENDBRANCH  48  49
ENDBRANCH  47  48
BRANCH  47  51
ATOM     51  C   UNL     1       7.328  -3.536  -7.885  1.00  0.00    +0.181 C 
BRANCH  51  52
ATOM     52  C   UNL     1       7.136  -2.312  -8.796  1.00  0.00    +0.209 C 
BRANCH  52  53
ATOM     53  C   UNL     1       8.251  -2.274  -9.834  1.00  0.00    +0.258 C 
ATOM     54  O   UNL     1       9.394  -1.904  -9.561  1.00  0.00    -0.300 OA
ENDBRANCH  52  53
BRANCH  52  55
ATOM     55  O   UNL     1       5.884  -2.342  -9.482  1.00  0.00    -0.383 OA
ATOM     56  H   UNL     1       6.095  -2.221 -10.431  1.00  0.00    +0.211 HD
ENDBRANCH  52  55
ENDBRANCH  51  52
BRANCH  51  57
ATOM     57  O   UNL     1       6.093  -3.763  -7.171  1.00  0.00    -0.387 OA
ATOM     58  H   UNL     1       5.519  -2.981  -7.336  1.00  0.00    +0.211 HD
ENDBRANCH  51  57
ENDBRANCH  47  51
ENDBRANCH  46  47
ENDBRANCH  41  46
ENDBRANCH   1  36
TORSDOF 24
ENDMDL
MODEL 8
REMARK VINA RESULT:    -6.325      2.084     11.457
REMARK INTER + INTRA:         -16.009
REMARK INTER:                 -13.520
REMARK INTRA:                  -2.489
REMARK UNBOUND:                -3.028
REMARK SMILES O=C[C@@H](O)[C@@H](O)[C@H](CO)O[C@H]1OC[C@@H](O[C@@H]2OC[C@H](O[C@H]3OC[C@H](O[C@H]4OC[C@H](O)[C@H](O)[C@@H]4O)[C@@H](O)[C@H]3O)[C@H](O)[C@@H]2O)[C@@H](O)[C@H]1O
REMARK SMILES IDX 15 1 16 2 19 3 18 4 39 5 17 6 41 7 20 8 21 9 24 10 23 11
REMARK SMILES IDX 35 12 22 13 37 14 25 15 26 16 28 17 29 18 27 19 31 20 33 21
REMARK SMILES IDX 30 22 32 24 34 26 36 28 38 30 40 32 42 34 14 36 13 37 43 38
REMARK SMILES IDX 12 39 45 40 11 41 44 42 46 44 10 46 7 47 8 48 9 49 5 51 3 52
REMARK SMILES IDX 2 53 1 54 4 55 6 57
REMARK H PARENT 30 23 32 25 34 27 36 29 38 31 40 33 42 35 44 43 46 45 9 50
REMARK H PARENT 4 56 6 58
ROOT
ATOM      1  O   UNL     1      11.319 -10.245  -5.342  1.00  0.00    -0.341 OA
ENDROOT
BRANCH   1   2
ATOM      2  C   UNL     1      12.253  -9.405  -6.028  1.00  0.00    +0.282 C 
ATOM      3  C   UNL     1      15.073  -8.585  -5.613  1.00  0.00    +0.179 C 
ATOM      4  C   UNL     1      14.536 -10.025  -5.658  1.00  0.00    +0.198 C 
ATOM      5  C   UNL     1      13.908  -7.568  -5.659  1.00  0.00    +0.179 C 
ATOM      6  O   UNL     1      13.393 -10.131  -6.503  1.00  0.00    -0.347 OA
ATOM      7  C   UNL     1      12.610  -8.187  -5.138  1.00  0.00    +0.202 C 
BRANCH   3   8
ATOM      8  O   UNL     1      15.846  -8.326  -4.429  1.00  0.00    -0.341 OA
BRANCH   8   9
ATOM      9  C   UNL     1      17.252  -8.181  -4.659  1.00  0.00    +0.282 C 
ATOM     10  C   UNL     1      17.434  -7.523  -1.973  1.00  0.00    +0.179 C 
ATOM     11  C   UNL     1      18.107  -6.629  -3.021  1.00  0.00    +0.198 C 
ATOM     12  C   UNL     1      17.676  -9.008  -2.313  1.00  0.00    +0.179 C 
ATOM     13  O   UNL     1      17.670  -6.848  -4.365  1.00  0.00    -0.347 OA
ATOM     14  C   UNL     1      18.016  -9.210  -3.800  1.00  0.00    +0.202 C 
BRANCH  10  15
ATOM     15  O   UNL     1      17.948  -7.145  -0.687  1.00  0.00    -0.341 OA
BRANCH  15  16
ATOM     16  C   UNL     1      18.107  -5.730  -0.522  1.00  0.00    +0.282 C 
ATOM     17  C   UNL     1      17.557  -3.990   0.994  1.00  0.00    +0.198 C 
ATOM     18  C   UNL     1      18.952  -3.899   1.621  1.00  0.00    +0.171 C 
ATOM     19  O   UNL     1      17.276  -5.322   0.574  1.00  0.00    -0.347 OA
ATOM     20  C   UNL     1      19.820  -5.109   1.233  1.00  0.00    +0.179 C 
ATOM     21  C   UNL     1      19.608  -5.454  -0.243  1.00  0.00    +0.202 C 
BRANCH  18  22
ATOM     22  O   UNL     1      19.609  -2.691   1.200  1.00  0.00    -0.388 OA
ATOM     23  H   UNL     1      19.083  -2.340   0.449  1.00  0.00    +0.211 HD
ENDBRANCH  18  22
BRANCH  20  24
ATOM     24  O   UNL     1      21.211  -4.804   1.449  1.00  0.00    -0.387 OA
ATOM     25  H   UNL     1      21.711  -5.361   0.816  1.00  0.00    +0.211 HD
ENDBRANCH  20  24
BRANCH  21  26
ATOM     26  O   UNL     1      20.072  -4.326  -1.023  1.00  0.00    -0.385 OA
ATOM     27  H   UNL     1      20.909  -4.063  -0.587  1.00  0.00    +0.211 HD
ENDBRANCH  21  26
ENDBRANCH  15  16
ENDBRANCH  10  15
BRANCH  12  28
ATOM     28  O   UNL     1      16.495  -9.765  -1.969  1.00  0.00    -0.387 OA
ATOM     29  H   UNL     1      15.777  -9.108  -1.858  1.00  0.00    +0.211 HD
ENDBRANCH  12  28
BRANCH  14  30
ATOM     30  O   UNL     1      17.717 -10.562  -4.178  1.00  0.00    -0.385 OA
ATOM     31  H   UNL     1      18.504 -11.101  -3.976  1.00  0.00    +0.211 HD
ENDBRANCH  14  30
ENDBRANCH   8   9
ENDBRANCH   3   8
BRANCH   5  32
ATOM     32  O   UNL     1      14.221  -6.394  -4.894  1.00  0.00    -0.387 OA
ATOM     33  H   UNL     1      13.782  -5.649  -5.359  1.00  0.00    +0.211 HD
ENDBRANCH   5  32
BRANCH   7  34
ATOM     34  O   UNL     1      12.795  -8.568  -3.760  1.00  0.00    -0.385 OA
ATOM     35  H   UNL     1      12.053  -8.161  -3.274  1.00  0.00    +0.211 HD
ENDBRANCH   7  34
ENDBRANCH   1   2
BRANCH   1  36
ATOM     36  C   UNL     1       9.963 -10.045  -5.747  1.00  0.00    +0.179 C 
ATOM     37  C   UNL     1       9.854  -8.820  -6.654  1.00  0.00    +0.198 C 
ATOM     38  C   UNL     1       9.075  -9.844  -4.501  1.00  0.00    +0.179 C 
ATOM     39  O   UNL     1       8.529  -8.628  -7.164  1.00  0.00    -0.347 OA
ATOM     40  C   UNL     1       7.888  -8.907  -4.780  1.00  0.00    +0.202 C 
ATOM     41  C   UNL     1       7.476  -9.006  -6.264  1.00  0.00    +0.282 C 
BRANCH  38  42
ATOM     42  O   UNL     1       9.830  -9.298  -3.399  1.00  0.00    -0.387 OA
ATOM     43  H   UNL     1      10.597  -8.839  -3.805  1.00  0.00    +0.211 HD
ENDBRANCH  38  42
BRANCH  40  44
ATOM     44  O   UNL     1       8.269  -7.555  -4.443  1.00  0.00    -0.385 OA
ATOM     45  H   UNL     1       9.072  -7.658  -3.891  1.00  0.00    +0.211 HD
ENDBRANCH  40  44
BRANCH  41  46
ATOM     46  O   UNL     1       6.331  -8.184  -6.486  1.00  0.00    -0.341 OA
BRANCH  46  47
ATOM     47  C   UNL     1       6.501  -7.197  -7.517  1.00  0.00    +0.178 C 
BRANCH  47  48
ATOM     48  C   UNL     1       5.193  -7.104  -8.310  1.00  0.00    +0.191 C 
BRANCH  48  49
ATOM     49  O   UNL     1       5.361  -6.313  -9.479  1.00  0.00    -0.394 OA
ATOM     50  H   UNL     1       5.529  -6.933 -10.213  1.00  0.00    +0.210 HD
ENDBRANCH  48  49
ENDBRANCH  47  48
BRANCH  47  51
ATOM     51  C   UNL     1       6.955  -5.853  -6.888  1.00  0.00    +0.181 C 
BRANCH  51  52
ATOM     52  C   UNL     1       8.096  -5.146  -7.638  1.00  0.00    +0.209 C 
BRANCH  52  53
ATOM     53  C   UNL     1       7.576  -3.849  -8.245  1.00  0.00    +0.258 C 
ATOM     54  O   UNL     1       6.921  -3.825  -9.288  1.00  0.00    -0.300 OA
ENDBRANCH  52  53
BRANCH  52  55
ATOM     55  O   UNL     1       9.193  -4.832  -6.779  1.00  0.00    -0.383 OA
ATOM     56  H   UNL     1       9.782  -4.247  -7.298  1.00  0.00    +0.211 HD
ENDBRANCH  52  55
ENDBRANCH  51  52
BRANCH  51  57
ATOM     57  O   UNL     1       5.825  -4.953  -6.837  1.00  0.00    -0.387 OA
ATOM     58  H   UNL     1       5.209  -5.226  -7.553  1.00  0.00    +0.211 HD
ENDBRANCH  51  57
ENDBRANCH  47  51
ENDBRANCH  46  47
ENDBRANCH  41  46
ENDBRANCH   1  36
TORSDOF 24
ENDMDL
MODEL 9
REMARK VINA RESULT:    -6.167     26.349     30.409
REMARK INTER + INTRA:         -15.685
REMARK INTER:                 -12.794
REMARK INTRA:                  -2.892
REMARK UNBOUND:                -3.028
REMARK SMILES O=C[C@@H](O)[C@@H](O)[C@H](CO)O[C@H]1OC[C@@H](O[C@@H]2OC[C@H](O[C@H]3OC[C@H](O[C@H]4OC[C@H](O)[C@H](O)[C@@H]4O)[C@@H](O)[C@H]3O)[C@H](O)[C@@H]2O)[C@@H](O)[C@H]1O
REMARK SMILES IDX 15 1 16 2 19 3 18 4 39 5 17 6 41 7 20 8 21 9 24 10 23 11
REMARK SMILES IDX 35 12 22 13 37 14 25 15 26 16 28 17 29 18 27 19 31 20 33 21
REMARK SMILES IDX 30 22 32 24 34 26 36 28 38 30 40 32 42 34 14 36 13 37 43 38
REMARK SMILES IDX 12 39 45 40 11 41 44 42 46 44 10 46 7 47 8 48 9 49 5 51 3 52
REMARK SMILES IDX 2 53 1 54 4 55 6 57
REMARK H PARENT 30 23 32 25 34 27 36 29 38 31 40 33 42 35 44 43 46 45 9 50
REMARK H PARENT 4 56 6 58
ROOT
ATOM      1  O   UNL     1      -5.827  12.364   6.229  1.00  0.00    -0.341 OA
ENDROOT
BRANCH   1   2
ATOM      2  C   UNL     1      -5.585  13.774   6.229  1.00  0.00    +0.282 C 
ATOM      3  C   UNL     1      -4.572  15.754   4.267  1.00  0.00    +0.179 C 
ATOM      4  C   UNL     1      -5.725  14.761   4.052  1.00  0.00    +0.198 C 
ATOM      5  C   UNL     1      -3.872  15.491   5.622  1.00  0.00    +0.179 C 
ATOM      6  O   UNL     1      -6.397  14.468   5.274  1.00  0.00    -0.347 OA
ATOM      7  C   UNL     1      -4.066  14.043   6.075  1.00  0.00    +0.202 C 
BRANCH   3   8
ATOM      8  O   UNL     1      -3.580  15.674   3.229  1.00  0.00    -0.341 OA
BRANCH   8   9
ATOM      9  C   UNL     1      -3.742  16.636   2.180  1.00  0.00    +0.282 C 
ATOM     10  C   UNL     1      -1.087  17.294   2.629  1.00  0.00    +0.179 C 
ATOM     11  C   UNL     1      -2.143  18.404   2.552  1.00  0.00    +0.198 C 
ATOM     12  C   UNL     1      -1.337  16.253   1.519  1.00  0.00    +0.179 C 
ATOM     13  O   UNL     1      -3.495  17.954   2.670  1.00  0.00    -0.347 OA
ATOM     14  C   UNL     1      -2.791  16.283   1.017  1.00  0.00    +0.202 C 
BRANCH  10  15
ATOM     15  O   UNL     1       0.203  17.917   2.541  1.00  0.00    -0.341 OA
BRANCH  15  16
ATOM     16  C   UNL     1       0.971  17.825   3.747  1.00  0.00    +0.282 C 
ATOM     17  C   UNL     1       0.869  16.869   5.916  1.00  0.00    +0.198 C 
ATOM     18  C   UNL     1       1.811  15.702   5.603  1.00  0.00    +0.171 C 
ATOM     19  O   UNL     1       0.132  17.250   4.757  1.00  0.00    -0.347 OA
ATOM     20  C   UNL     1       2.039  15.557   4.088  1.00  0.00    +0.179 C 
ATOM     21  C   UNL     1       2.209  16.938   3.451  1.00  0.00    +0.202 C 
BRANCH  18  22
ATOM     22  O   UNL     1       3.076  15.895   6.257  1.00  0.00    -0.388 OA
ATOM     23  H   UNL     1       3.714  16.143   5.554  1.00  0.00    +0.211 HD
ENDBRANCH  18  22
BRANCH  20  24
ATOM     24  O   UNL     1       3.225  14.778   3.844  1.00  0.00    -0.387 OA
ATOM     25  H   UNL     1       3.253  14.626   2.876  1.00  0.00    +0.211 HD
ENDBRANCH  20  24
BRANCH  21  26
ATOM     26  O   UNL     1       3.406  17.529   4.010  1.00  0.00    -0.385 OA
ATOM     27  H   UNL     1       3.070  18.199   4.642  1.00  0.00    +0.211 HD
ENDBRANCH  21  26
ENDBRANCH  15  16
ENDBRANCH  10  15
BRANCH  12  28
ATOM     28  O   UNL     1      -1.018  14.940   2.029  1.00  0.00    -0.387 OA
ATOM     29  H   UNL     1      -1.545  14.834   2.848  1.00  0.00    +0.211 HD
ENDBRANCH  12  28
BRANCH  14  30
ATOM     30  O   UNL     1      -3.115  15.022   0.414  1.00  0.00    -0.385 OA
ATOM     31  H   UNL     1      -2.419  14.824  -0.239  1.00  0.00    +0.211 HD
ENDBRANCH  14  30
ENDBRANCH   8   9
ENDBRANCH   3   8
BRANCH   5  32
ATOM     32  O   UNL     1      -2.469  15.785   5.540  1.00  0.00    -0.387 OA
ATOM     33  H   UNL     1      -2.009  14.955   5.790  1.00  0.00    +0.211 HD
ENDBRANCH   5  32
BRANCH   7  34
ATOM     34  O   UNL     1      -3.466  13.166   5.100  1.00  0.00    -0.385 OA
ATOM     35  H   UNL     1      -4.136  12.479   4.919  1.00  0.00    +0.211 HD
ENDBRANCH   7  34
ENDBRANCH   1   2
BRANCH   1  36
ATOM     36  C   UNL     1      -7.044  11.991   6.878  1.00  0.00    +0.179 C 
ATOM     37  C   UNL     1      -6.889  10.631   7.558  1.00  0.00    +0.198 C 
ATOM     38  C   UNL     1      -8.184  11.921   5.841  1.00  0.00    +0.179 C 
ATOM     39  O   UNL     1      -8.053  10.251   8.303  1.00  0.00    -0.347 OA
ATOM     40  C   UNL     1      -9.234  10.857   6.203  1.00  0.00    +0.202 C 
ATOM     41  C   UNL     1      -9.299  10.681   7.735  1.00  0.00    +0.282 C 
BRANCH  38  42
ATOM     42  O   UNL     1      -7.679  11.624   4.522  1.00  0.00    -0.387 OA
ATOM     43  H   UNL     1      -6.851  12.145   4.433  1.00  0.00    +0.211 HD
ENDBRANCH  38  42
BRANCH  40  44
ATOM     44  O   UNL     1      -8.881   9.613   5.560  1.00  0.00    -0.385 OA
ATOM     45  H   UNL     1      -9.546   9.509   4.846  1.00  0.00    +0.211 HD
ENDBRANCH  40  44
BRANCH  41  46
ATOM     46  O   UNL     1     -10.326   9.743   8.053  1.00  0.00    -0.341 OA
BRANCH  46  47
ATOM     47  C   UNL     1     -11.642  10.313   8.143  1.00  0.00    +0.178 C 
BRANCH  47  48
ATOM     48  C   UNL     1     -12.540   9.603   7.124  1.00  0.00    +0.191 C 
BRANCH  48  49
ATOM     49  O   UNL     1     -11.803   8.648   6.373  1.00  0.00    -0.394 OA
ATOM     50  H   UNL     1     -11.694   9.020   5.479  1.00  0.00    +0.210 HD
ENDBRANCH  48  49
ENDBRANCH  47  48
BRANCH  47  51
ATOM     51  C   UNL     1     -12.154  10.225   9.605  1.00  0.00    +0.181 C 
BRANCH  51  52
ATOM     52  C   UNL     1     -11.541   9.083  10.433  1.00  0.00    +0.209 C 
BRANCH  52  53
ATOM     53  C   UNL     1     -12.298   8.948  11.748  1.00  0.00    +0.258 C 
ATOM     54  O   UNL     1     -12.943   9.877  12.236  1.00  0.00    -0.300 OA
ENDBRANCH  52  53
BRANCH  52  55
ATOM     55  O   UNL     1     -11.600   7.831   9.749  1.00  0.00    -0.383 OA
ATOM     56  H   UNL     1     -10.818   7.810   9.159  1.00  0.00    +0.211 HD
ENDBRANCH  52  55
ENDBRANCH  51  52
BRANCH  51  57
ATOM     57  O   UNL     1     -11.868  11.471  10.279  1.00  0.00    -0.387 OA
ATOM     58  H   UNL     1     -11.594  12.114   9.587  1.00  0.00    +0.211 HD
ENDBRANCH  51  57
ENDBRANCH  47  51
ENDBRANCH  46  47
ENDBRANCH  41  46
ENDBRANCH   1  36
TORSDOF 24
ENDMDL
