MODEL 1
REMARK VINA RESULT:    -7.735      0.000      0.000
REMARK INTER + INTRA:         -12.558
REMARK INTER:                 -11.352
REMARK INTRA:                  -1.206
REMARK UNBOUND:                -1.206
REMARK SMILES O=S(=O)(O)OC[C@@H]1O[C@H](O[C@H]2[C@@H]3OC[C@H]2O[C@@H](O)[C@H]3O)[C@@H](O)[C@H](O)[C@@H]1O
REMARK SMILES IDX 9 1 21 2 23 3 25 4 7 5 8 6 10 7 11 8 14 9 15 10 13 11 16 12
REMARK SMILES IDX 12 13 17 14 19 15 18 16 20 18 22 20 24 22 6 24 5 25 2 26
REMARK SMILES IDX 1 27 3 28 4 29 26 31
REMARK H PARENT 18 17 20 19 22 21 24 23 4 30 26 32
ROOT
ATOM      1  C   UNL     1      10.147   1.789  -7.179  1.00  0.00    +0.282 C 
ATOM      2  C   UNL     1       9.936   0.459  -6.430  1.00  0.00    +0.202 C 
ATOM      3  C   UNL     1      11.287  -0.222  -6.284  1.00  0.00    +0.179 C 
ATOM      4  C   UNL     1      12.192   0.636  -5.396  1.00  0.00    +0.177 C 
ATOM      5  C   UNL     1      11.993   2.154  -5.622  1.00  0.00    +0.180 C 
ATOM      6  O   UNL     1      11.381   2.445  -6.892  1.00  0.00    -0.341 OA
ENDROOT
BRANCH   1   7
ATOM      7  O   UNL     1       9.003   2.613  -6.938  1.00  0.00    -0.341 OA
BRANCH   7   8
ATOM      8  C   UNL     1       9.212   3.974  -7.299  1.00  0.00    +0.184 C 
ATOM      9  C   UNL     1       8.749   6.266  -7.132  1.00  0.00    +0.195 C 
ATOM     10  C   UNL     1       8.686   4.987  -6.294  1.00  0.00    +0.179 C 
ATOM     11  O   UNL     1       8.483   5.857  -8.498  1.00  0.00    -0.370 OA
ATOM     12  O   UNL     1       7.352   4.640  -5.883  1.00  0.00    -0.342 OA
ATOM     13  C   UNL     1       8.355   4.412  -8.481  1.00  0.00    +0.184 C 
ATOM     14  C   UNL     1       6.370   4.582  -6.912  1.00  0.00    +0.279 C 
ATOM     15  C   UNL     1       6.891   4.013  -8.250  1.00  0.00    +0.202 C 
BRANCH  14  16
ATOM     16  O   UNL     1       5.832   5.888  -7.105  1.00  0.00    -0.366 OA
ATOM     17  H   UNL     1       5.083   5.938  -6.484  1.00  0.00    +0.213 HD
ENDBRANCH  14  16
BRANCH  15  18
ATOM     18  O   UNL     1       6.077   4.454  -9.345  1.00  0.00    -0.385 OA
ATOM     19  H   UNL     1       6.701   4.501 -10.100  1.00  0.00    +0.211 HD
ENDBRANCH  15  18
ENDBRANCH   7   8
ENDBRANCH   1   7
BRANCH   2  20
ATOM     20  O   UNL     1       9.044  -0.412  -7.146  1.00  0.00    -0.385 OA
ATOM     21  H   UNL     1       9.499  -1.274  -7.209  1.00  0.00    +0.211 HD
ENDBRANCH   2  20
BRANCH   3  22
ATOM     22  O   UNL     1      11.132  -1.520  -5.687  1.00  0.00    -0.387 OA
ATOM     23  H   UNL     1      10.704  -1.348  -4.822  1.00  0.00    +0.211 HD
ENDBRANCH   3  22
BRANCH   5  24
ATOM     24  C   UNL     1      11.300   2.900  -4.467  1.00  0.00    +0.220 C 
BRANCH  24  25
ATOM     25  O   UNL     1      12.140   3.974  -4.052  1.00  0.00    -0.245 OA
BRANCH  25  26
ATOM     26  S   UNL     1      13.352   3.634  -3.026  1.00  0.00    +0.397 S 
ATOM     27  O   UNL     1      14.624   3.821  -3.686  1.00  0.00    -0.169 OA
ATOM     28  O   UNL     1      13.021   2.417  -2.321  1.00  0.00    -0.169 OA
BRANCH  26  29
ATOM     29  O   UNL     1      13.195   4.800  -1.927  1.00  0.00    -0.264 OA
ATOM     30  H   UNL     1      13.851   4.618  -1.224  1.00  0.00    +0.236 HD
ENDBRANCH  26  29
ENDBRANCH  25  26
ENDBRANCH  24  25
ENDBRANCH   5  24
BRANCH   4  31
ATOM     31  O   UNL     1      11.981   0.279  -4.026  1.00  0.00    -0.387 OA
ATOM     32  H   UNL     1      12.779   0.608  -3.555  1.00  0.00    +0.211 HD
ENDBRANCH   4  31
TORSDOF 11
ENDMDL
MODEL 2
REMARK VINA RESULT:    -7.055      2.616      5.348
REMARK INTER + INTRA:         -11.560
REMARK INTER:                 -10.567
REMARK INTRA:                  -0.993
REMARK UNBOUND:                -1.206
REMARK SMILES O=S(=O)(O)OC[C@@H]1O[C@H](O[C@H]2[C@@H]3OC[C@H]2O[C@@H](O)[C@H]3O)[C@@H](O)[C@H](O)[C@@H]1O
REMARK SMILES IDX 9 1 21 2 23 3 25 4 7 5 8 6 10 7 11 8 14 9 15 10 13 11 16 12
REMARK SMILES IDX 12 13 17 14 19 15 18 16 20 18 22 20 24 22 6 24 5 25 2 26
REMARK SMILES IDX 1 27 3 28 4 29 26 31
REMARK H PARENT 18 17 20 19 22 21 24 23 4 30 26 32
ROOT
ATOM      1  C   UNL     1      12.456   2.670  -2.868  1.00  0.00    +0.282 C 
ATOM      2  C   UNL     1      13.515   3.729  -2.505  1.00  0.00    +0.202 C 
ATOM      3  C   UNL     1      14.432   3.140  -1.447  1.00  0.00    +0.179 C 
ATOM      4  C   UNL     1      15.194   1.952  -2.043  1.00  0.00    +0.177 C 
ATOM      5  C   UNL     1      14.337   1.119  -3.026  1.00  0.00    +0.180 C 
ATOM      6  O   UNL     1      12.925   1.324  -2.832  1.00  0.00    -0.341 OA
ENDROOT
BRANCH   1   7
ATOM      7  O   UNL     1      11.887   3.034  -4.128  1.00  0.00    -0.341 OA
BRANCH   7   8
ATOM      8  C   UNL     1      11.423   1.913  -4.873  1.00  0.00    +0.184 C 
ATOM      9  C   UNL     1      10.570   0.914  -6.814  1.00  0.00    +0.195 C 
ATOM     10  C   UNL     1      11.425   2.106  -6.382  1.00  0.00    +0.179 C 
ATOM     11  O   UNL     1       9.605   0.711  -5.750  1.00  0.00    -0.370 OA
ATOM     12  O   UNL     1      10.845   3.378  -6.726  1.00  0.00    -0.342 OA
ATOM     13  C   UNL     1       9.926   1.673  -4.711  1.00  0.00    +0.184 C 
ATOM     14  C   UNL     1       9.497   3.587  -6.318  1.00  0.00    +0.279 C 
ATOM     15  C   UNL     1       9.152   2.978  -4.941  1.00  0.00    +0.202 C 
BRANCH  14  16
ATOM     16  O   UNL     1       8.630   3.066  -7.323  1.00  0.00    -0.366 OA
ATOM     17  H   UNL     1       8.109   3.834  -7.618  1.00  0.00    +0.213 HD
ENDBRANCH  14  16
BRANCH  15  18
ATOM     18  O   UNL     1       7.742   2.748  -4.824  1.00  0.00    -0.385 OA
ATOM     19  H   UNL     1       7.367   3.643  -4.681  1.00  0.00    +0.211 HD
ENDBRANCH  15  18
ENDBRANCH   7   8
ENDBRANCH   1   7
BRANCH   2  20
ATOM     20  O   UNL     1      12.906   4.925  -1.988  1.00  0.00    -0.385 OA
ATOM     21  H   UNL     1      11.962   4.876  -2.235  1.00  0.00    +0.211 HD
ENDBRANCH   2  20
BRANCH   3  22
ATOM     22  O   UNL     1      15.374   4.126  -0.993  1.00  0.00    -0.387 OA
ATOM     23  H   UNL     1      16.197   3.933  -1.488  1.00  0.00    +0.211 HD
ENDBRANCH   3  22
BRANCH   5  24
ATOM     24  C   UNL     1      14.737   1.246  -4.508  1.00  0.00    +0.220 C 
BRANCH  24  25
ATOM     25  O   UNL     1      15.104  -0.044  -4.989  1.00  0.00    -0.245 OA
BRANCH  25  26
ATOM     26  S   UNL     1      14.026  -0.849  -5.898  1.00  0.00    +0.397 S 
ATOM     27  O   UNL     1      13.891  -0.208  -7.187  1.00  0.00    -0.169 OA
ATOM     28  O   UNL     1      12.884  -1.167  -5.072  1.00  0.00    -0.169 OA
BRANCH  26  29
ATOM     29  O   UNL     1      14.770  -2.258  -6.129  1.00  0.00    -0.264 OA
ATOM     30  H   UNL     1      14.496  -2.584  -7.010  1.00  0.00    +0.236 HD
ENDBRANCH  26  29
ENDBRANCH  25  26
ENDBRANCH  24  25
ENDBRANCH   5  24
BRANCH   4  31
ATOM     31  O   UNL     1      16.392   2.429  -2.666  1.00  0.00    -0.387 OA
ATOM     32  H   UNL     1      16.166   2.504  -3.620  1.00  0.00    +0.211 HD
ENDBRANCH   4  31
TORSDOF 11
ENDMDL
MODEL 3
REMARK VINA RESULT:    -6.973      2.711      7.024
REMARK INTER + INTRA:         -11.439
REMARK INTER:                 -10.423
REMARK INTRA:                  -1.016
REMARK UNBOUND:                -1.206
REMARK SMILES O=S(=O)(O)OC[C@@H]1O[C@H](O[C@H]2[C@@H]3OC[C@H]2O[C@@H](O)[C@H]3O)[C@@H](O)[C@H](O)[C@@H]1O
REMARK SMILES IDX 9 1 21 2 23 3 25 4 7 5 8 6 10 7 11 8 14 9 15 10 13 11 16 12
REMARK SMILES IDX 12 13 17 14 19 15 18 16 20 18 22 20 24 22 6 24 5 25 2 26
REMARK SMILES IDX 1 27 3 28 4 29 26 31
REMARK H PARENT 18 17 20 19 22 21 24 23 4 30 26 32
ROOT
ATOM      1  C   UNL     1      12.249   1.783  -5.682  1.00  0.00    +0.282 C 
ATOM      2  C   UNL     1      12.613   2.823  -6.759  1.00  0.00    +0.202 C 
ATOM      3  C   UNL     1      11.966   2.398  -8.066  1.00  0.00    +0.179 C 
ATOM      4  C   UNL     1      10.443   2.445  -7.916  1.00  0.00    +0.177 C 
ATOM      5  C   UNL     1       9.962   2.003  -6.513  1.00  0.00    +0.180 C 
ATOM      6  O   UNL     1      10.948   1.216  -5.818  1.00  0.00    -0.341 OA
ENDROOT
BRANCH   1   7
ATOM      7  O   UNL     1      12.470   2.383  -4.402  1.00  0.00    -0.341 OA
BRANCH   7   8
ATOM      8  C   UNL     1      13.373   1.642  -3.589  1.00  0.00    +0.184 C 
ATOM      9  C   UNL     1      14.465   1.201  -1.563  1.00  0.00    +0.195 C 
ATOM     10  C   UNL     1      13.166   1.809  -2.092  1.00  0.00    +0.179 C 
ATOM     11  O   UNL     1      15.478   1.504  -2.557  1.00  0.00    -0.370 OA
ATOM     12  O   UNL     1      13.011   3.200  -1.759  1.00  0.00    -0.342 OA
ATOM     13  C   UNL     1      14.799   2.178  -3.648  1.00  0.00    +0.184 C 
ATOM     14  C   UNL     1      14.103   4.053  -2.088  1.00  0.00    +0.279 C 
ATOM     15  C   UNL     1      14.804   3.696  -3.417  1.00  0.00    +0.202 C 
BRANCH  14  16
ATOM     16  O   UNL     1      15.038   4.033  -1.012  1.00  0.00    -0.366 OA
ATOM     17  H   UNL     1      14.986   3.127  -0.660  1.00  0.00    +0.213 HD
ENDBRANCH  14  16
BRANCH  15  18
ATOM     18  O   UNL     1      16.146   4.198  -3.437  1.00  0.00    -0.385 OA
ATOM     19  H   UNL     1      16.210   4.734  -2.618  1.00  0.00    +0.211 HD
ENDBRANCH  15  18
ENDBRANCH   7   8
ENDBRANCH   1   7
BRANCH   2  20
ATOM     20  O   UNL     1      14.036   2.912  -6.944  1.00  0.00    -0.385 OA
ATOM     21  H   UNL     1      14.204   2.663  -7.874  1.00  0.00    +0.211 HD
ENDBRANCH   2  20
BRANCH   3  22
ATOM     22  O   UNL     1      12.363   3.277  -9.132  1.00  0.00    -0.387 OA
ATOM     23  H   UNL     1      11.538   3.731  -9.403  1.00  0.00    +0.211 HD
ENDBRANCH   3  22
BRANCH   5  24
ATOM     24  C   UNL     1       9.404   3.133  -5.628  1.00  0.00    +0.220 C 
BRANCH  24  25
ATOM     25  O   UNL     1       7.995   2.957  -5.504  1.00  0.00    -0.245 OA
BRANCH  25  26
ATOM     26  S   UNL     1       7.030   3.932  -6.372  1.00  0.00    +0.397 S 
ATOM     27  O   UNL     1       7.545   5.282  -6.351  1.00  0.00    -0.169 OA
ATOM     28  O   UNL     1       5.657   3.626  -6.039  1.00  0.00    -0.169 OA
BRANCH  26  29
ATOM     29  O   UNL     1       7.228   3.357  -7.863  1.00  0.00    -0.264 OA
ATOM     30  H   UNL     1       7.193   2.381  -7.799  1.00  0.00    +0.236 HD
ENDBRANCH  26  29
ENDBRANCH  25  26
ENDBRANCH  24  25
ENDBRANCH   5  24
BRANCH   4  31
ATOM     31  O   UNL     1       9.980   3.762  -8.237  1.00  0.00    -0.387 OA
ATOM     32  H   UNL     1      10.628   4.366  -7.812  1.00  0.00    +0.211 HD
ENDBRANCH   4  31
TORSDOF 11
ENDMDL
MODEL 4
REMARK VINA RESULT:    -6.961      2.961      6.728
REMARK INTER + INTRA:         -11.422
REMARK INTER:                 -10.822
REMARK INTRA:                  -0.600
REMARK UNBOUND:                -1.206
REMARK SMILES O=S(=O)(O)OC[C@@H]1O[C@H](O[C@H]2[C@@H]3OC[C@H]2O[C@@H](O)[C@H]3O)[C@@H](O)[C@H](O)[C@@H]1O
REMARK SMILES IDX 9 1 21 2 23 3 25 4 7 5 8 6 10 7 11 8 14 9 15 10 13 11 16 12
REMARK SMILES IDX 12 13 17 14 19 15 18 16 20 18 22 20 24 22 6 24 5 25 2 26
REMARK SMILES IDX 1 27 3 28 4 29 26 31
REMARK H PARENT 18 17 20 19 22 21 24 23 4 30 26 32
ROOT
ATOM      1  C   UNL     1      13.036   0.394  -4.408  1.00  0.00    +0.282 C 
ATOM      2  C   UNL     1      13.536   1.073  -5.698  1.00  0.00    +0.202 C 
ATOM      3  C   UNL     1      12.818   0.438  -6.877  1.00  0.00    +0.179 C 
ATOM      4  C   UNL     1      11.320   0.742  -6.780  1.00  0.00    +0.177 C 
ATOM      5  C   UNL     1      10.796   0.734  -5.324  1.00  0.00    +0.180 C 
ATOM      6  O   UNL     1      11.664   0.006  -4.434  1.00  0.00    -0.341 OA
ENDROOT
BRANCH   1   7
ATOM      7  O   UNL     1      13.358   1.252  -3.310  1.00  0.00    -0.341 OA
BRANCH   7   8
ATOM      8  C   UNL     1      13.962   2.474  -3.718  1.00  0.00    +0.184 C 
ATOM      9  C   UNL     1      15.648   4.099  -3.610  1.00  0.00    +0.195 C 
ATOM     10  C   UNL     1      15.436   2.604  -3.367  1.00  0.00    +0.179 C 
ATOM     11  O   UNL     1      14.392   4.739  -3.265  1.00  0.00    -0.370 OA
ATOM     12  O   UNL     1      15.663   2.211  -2.001  1.00  0.00    -0.342 OA
ATOM     13  C   UNL     1      13.467   3.675  -2.920  1.00  0.00    +0.184 C 
ATOM     14  C   UNL     1      14.970   2.958  -1.007  1.00  0.00    +0.279 C 
ATOM     15  C   UNL     1      13.540   3.378  -1.416  1.00  0.00    +0.202 C 
BRANCH  14  16
ATOM     16  O   UNL     1      15.747   4.104  -0.670  1.00  0.00    -0.366 OA
ATOM     17  H   UNL     1      16.045   4.457  -1.528  1.00  0.00    +0.213 HD
ENDBRANCH  14  16
BRANCH  15  18
ATOM     18  O   UNL     1      13.108   4.518  -0.662  1.00  0.00    -0.385 OA
ATOM     19  H   UNL     1      13.932   4.853  -0.247  1.00  0.00    +0.211 HD
ENDBRANCH  15  18
ENDBRANCH   7   8
ENDBRANCH   1   7
BRANCH   2  20
ATOM     20  O   UNL     1      14.955   0.905  -5.864  1.00  0.00    -0.385 OA
ATOM     21  H   UNL     1      15.187   1.369  -6.693  1.00  0.00    +0.211 HD
ENDBRANCH   2  20
BRANCH   3  22
ATOM     22  O   UNL     1      13.328   0.960  -8.115  1.00  0.00    -0.387 OA
ATOM     23  H   UNL     1      12.907   1.841  -8.208  1.00  0.00    +0.211 HD
ENDBRANCH   3  22
BRANCH   5  24
ATOM     24  C   UNL     1      10.422   2.115  -4.758  1.00  0.00    +0.220 C 
BRANCH  24  25
ATOM     25  O   UNL     1       9.048   2.365  -5.045  1.00  0.00    -0.245 OA
BRANCH  25  26
ATOM     26  S   UNL     1       8.688   3.662  -5.953  1.00  0.00    +0.397 S 
ATOM     27  O   UNL     1       9.895   4.387  -6.279  1.00  0.00    -0.169 OA
ATOM     28  O   UNL     1       7.531   4.310  -5.380  1.00  0.00    -0.169 OA
BRANCH  26  29
ATOM     29  O   UNL     1       8.147   2.981  -7.308  1.00  0.00    -0.264 OA
ATOM     30  H   UNL     1       7.407   3.535  -7.630  1.00  0.00    +0.236 HD
ENDBRANCH  26  29
ENDBRANCH  25  26
ENDBRANCH  24  25
ENDBRANCH   5  24
BRANCH   4  31
ATOM     31  O   UNL     1      11.053   1.992  -7.426  1.00  0.00    -0.387 OA
ATOM     32  H   UNL     1      10.856   2.617  -6.692  1.00  0.00    +0.211 HD
ENDBRANCH   4  31
TORSDOF 11
ENDMDL
MODEL 5
REMARK VINA RESULT:    -6.886      2.763      6.947
REMARK INTER + INTRA:         -11.313
REMARK INTER:                 -10.257
REMARK INTRA:                  -1.056
REMARK UNBOUND:                -1.206
REMARK SMILES O=S(=O)(O)OC[C@@H]1O[C@H](O[C@H]2[C@@H]3OC[C@H]2O[C@@H](O)[C@H]3O)[C@@H](O)[C@H](O)[C@@H]1O
REMARK SMILES IDX 9 1 21 2 23 3 25 4 7 5 8 6 10 7 11 8 14 9 15 10 13 11 16 12
REMARK SMILES IDX 12 13 17 14 19 15 18 16 20 18 22 20 24 22 6 24 5 25 2 26
REMARK SMILES IDX 1 27 3 28 4 29 26 31
REMARK H PARENT 18 17 20 19 22 21 24 23 4 30 26 32
ROOT
ATOM      1  C   UNL     1      11.791   1.414  -3.695  1.00  0.00    +0.282 C 
ATOM      2  C   UNL     1      12.299   0.548  -4.865  1.00  0.00    +0.202 C 
ATOM      3  C   UNL     1      11.160  -0.346  -5.323  1.00  0.00    +0.179 C 
ATOM      4  C   UNL     1      10.031   0.522  -5.886  1.00  0.00    +0.177 C 
ATOM      5  C   UNL     1       9.849   1.850  -5.112  1.00  0.00    +0.180 C 
ATOM      6  O   UNL     1      10.421   1.798  -3.792  1.00  0.00    -0.341 OA
ENDROOT
BRANCH   1   7
ATOM      7  O   UNL     1      12.679   2.527  -3.557  1.00  0.00    -0.341 OA
BRANCH   7   8
ATOM      8  C   UNL     1      13.189   2.669  -2.235  1.00  0.00    +0.184 C 
ATOM      9  C   UNL     1      14.386   3.820  -0.580  1.00  0.00    +0.195 C 
ATOM     10  C   UNL     1      13.585   4.088  -1.855  1.00  0.00    +0.179 C 
ATOM     11  O   UNL     1      15.026   2.532  -0.777  1.00  0.00    -0.370 OA
ATOM     12  O   UNL     1      14.367   4.688  -2.903  1.00  0.00    -0.342 OA
ATOM     13  C   UNL     1      14.562   2.032  -2.058  1.00  0.00    +0.184 C 
ATOM     14  C   UNL     1      15.585   4.031  -3.236  1.00  0.00    +0.279 C 
ATOM     15  C   UNL     1      15.507   2.490  -3.178  1.00  0.00    +0.202 C 
BRANCH  14  16
ATOM     16  O   UNL     1      16.613   4.509  -2.373  1.00  0.00    -0.366 OA
ATOM     17  H   UNL     1      16.854   3.737  -1.829  1.00  0.00    +0.213 HD
ENDBRANCH  14  16
BRANCH  15  18
ATOM     18  O   UNL     1      16.809   1.919  -2.995  1.00  0.00    -0.385 OA
ATOM     19  H   UNL     1      17.422   2.654  -3.212  1.00  0.00    +0.211 HD
ENDBRANCH  15  18
ENDBRANCH   7   8
ENDBRANCH   1   7
BRANCH   2  20
ATOM     20  O   UNL     1      13.412  -0.271  -4.467  1.00  0.00    -0.385 OA
ATOM     21  H   UNL     1      13.827  -0.584  -5.295  1.00  0.00    +0.211 HD
ENDBRANCH   2  20
BRANCH   3  22
ATOM     22  O   UNL     1      11.613  -1.253  -6.342  1.00  0.00    -0.387 OA
ATOM     23  H   UNL     1      12.491  -0.909  -6.610  1.00  0.00    +0.211 HD
ENDBRANCH   3  22
BRANCH   5  24
ATOM     24  C   UNL     1      10.283   3.114  -5.876  1.00  0.00    +0.220 C 
BRANCH  24  25
ATOM     25  O   UNL     1       9.327   3.375  -6.901  1.00  0.00    -0.245 OA
BRANCH  25  26
ATOM     26  S   UNL     1       8.331   4.641  -6.704  1.00  0.00    +0.397 S 
ATOM     27  O   UNL     1       7.523   4.454  -5.520  1.00  0.00    -0.169 OA
ATOM     28  O   UNL     1       7.752   4.968  -7.987  1.00  0.00    -0.169 OA
BRANCH  26  29
ATOM     29  O   UNL     1       9.366   5.837  -6.404  1.00  0.00    -0.264 OA
ATOM     30  H   UNL     1      10.267   5.462  -6.491  1.00  0.00    +0.236 HD
ENDBRANCH  26  29
ENDBRANCH  25  26
ENDBRANCH  24  25
ENDBRANCH   5  24
BRANCH   4  31
ATOM     31  O   UNL     1      10.268   0.755  -7.278  1.00  0.00    -0.387 OA
ATOM     32  H   UNL     1      10.682   1.647  -7.317  1.00  0.00    +0.211 HD
ENDBRANCH   4  31
TORSDOF 11
ENDMDL
MODEL 6
REMARK VINA RESULT:    -6.520      7.948     11.345
REMARK INTER + INTRA:         -10.775
REMARK INTER:                  -9.839
REMARK INTRA:                  -0.936
REMARK UNBOUND:                -1.206
REMARK SMILES O=S(=O)(O)OC[C@@H]1O[C@H](O[C@H]2[C@@H]3OC[C@H]2O[C@@H](O)[C@H]3O)[C@@H](O)[C@H](O)[C@@H]1O
REMARK SMILES IDX 9 1 21 2 23 3 25 4 7 5 8 6 10 7 11 8 14 9 15 10 13 11 16 12
REMARK SMILES IDX 12 13 17 14 19 15 18 16 20 18 22 20 24 22 6 24 5 25 2 26
REMARK SMILES IDX 1 27 3 28 4 29 26 31
REMARK H PARENT 18 17 20 19 22 21 24 23 4 30 26 32
ROOT
ATOM      1  C   UNL     1       0.768   7.846 -11.218  1.00  0.00    +0.282 C 
ATOM      2  C   UNL     1      -0.129   8.177 -10.009  1.00  0.00    +0.202 C 
ATOM      3  C   UNL     1      -0.453   6.879  -9.290  1.00  0.00    +0.179 C 
ATOM      4  C   UNL     1       0.836   6.280  -8.721  1.00  0.00    +0.177 C 
ATOM      5  C   UNL     1       2.057   6.489  -9.648  1.00  0.00    +0.180 C 
ATOM      6  O   UNL     1       1.673   6.764 -11.008  1.00  0.00    -0.341 OA
ENDROOT
BRANCH   1   7
ATOM      7  O   UNL     1       1.419   9.053 -11.623  1.00  0.00    -0.341 OA
BRANCH   7   8
ATOM      8  C   UNL     1       0.923   9.564 -12.856  1.00  0.00    +0.184 C 
ATOM      9  C   UNL     1       0.777   9.572 -15.196  1.00  0.00    +0.195 C 
ATOM     10  C   UNL     1       1.052   8.613 -14.036  1.00  0.00    +0.179 C 
ATOM     11  O   UNL     1       1.304  10.858 -14.779  1.00  0.00    -0.370 OA
ATOM     12  O   UNL     1       2.368   8.035 -14.075  1.00  0.00    -0.342 OA
ATOM     13  C   UNL     1       1.785  10.688 -13.421  1.00  0.00    +0.184 C 
ATOM     14  C   UNL     1       3.454   8.946 -14.204  1.00  0.00    +0.279 C 
ATOM     15  C   UNL     1       3.262  10.270 -13.430  1.00  0.00    +0.202 C 
BRANCH  14  16
ATOM     16  O   UNL     1       3.670   9.208 -15.588  1.00  0.00    -0.366 OA
ATOM     17  H   UNL     1       3.740  10.177 -15.646  1.00  0.00    +0.213 HD
ENDBRANCH  14  16
BRANCH  15  18
ATOM     18  O   UNL     1       4.070  11.311 -13.992  1.00  0.00    -0.385 OA
ATOM     19  H   UNL     1       4.934  11.212 -13.538  1.00  0.00    +0.211 HD
ENDBRANCH  15  18
ENDBRANCH   7   8
ENDBRANCH   1   7
BRANCH   2  20
ATOM     20  O   UNL     1      -1.354   8.808 -10.420  1.00  0.00    -0.385 OA
ATOM     21  H   UNL     1      -1.335   9.708 -10.041  1.00  0.00    +0.211 HD
ENDBRANCH   2  20
BRANCH   3  22
ATOM     22  O   UNL     1      -1.378   7.118  -8.215  1.00  0.00    -0.387 OA
ATOM     23  H   UNL     1      -2.054   7.718  -8.596  1.00  0.00    +0.211 HD
ENDBRANCH   3  22
BRANCH   5  24
ATOM     24  C   UNL     1       3.102   7.496  -9.132  1.00  0.00    +0.220 C 
BRANCH  24  25
ATOM     25  O   UNL     1       4.395   6.908  -9.255  1.00  0.00    -0.245 OA
BRANCH  25  26
ATOM     26  S   UNL     1       4.948   6.027  -8.009  1.00  0.00    +0.397 S 
ATOM     27  O   UNL     1       5.688   4.887  -8.500  1.00  0.00    -0.169 OA
ATOM     28  O   UNL     1       3.884   5.895  -7.040  1.00  0.00    -0.169 OA
BRANCH  26  29
ATOM     29  O   UNL     1       6.001   7.036  -7.327  1.00  0.00    -0.264 OA
ATOM     30  H   UNL     1       6.256   6.644  -6.468  1.00  0.00    +0.236 HD
ENDBRANCH  26  29
ENDBRANCH  25  26
ENDBRANCH  24  25
ENDBRANCH   5  24
BRANCH   4  31
ATOM     31  O   UNL     1       1.069   6.821  -7.416  1.00  0.00    -0.387 OA
ATOM     32  H   UNL     1       2.047   6.814  -7.313  1.00  0.00    +0.211 HD
ENDBRANCH   4  31
TORSDOF 11
ENDMDL
MODEL 7
REMARK VINA RESULT:    -6.375      9.892     13.209
REMARK INTER + INTRA:         -10.562
REMARK INTER:                  -9.354
REMARK INTRA:                  -1.208
REMARK UNBOUND:                -1.206
REMARK SMILES O=S(=O)(O)OC[C@@H]1O[C@H](O[C@H]2[C@@H]3OC[C@H]2O[C@@H](O)[C@H]3O)[C@@H](O)[C@H](O)[C@@H]1O
REMARK SMILES IDX 9 1 21 2 23 3 25 4 7 5 8 6 10 7 11 8 14 9 15 10 13 11 16 12
REMARK SMILES IDX 12 13 17 14 19 15 18 16 20 18 22 20 24 22 6 24 5 25 2 26
REMARK SMILES IDX 1 27 3 28 4 29 26 31
REMARK H PARENT 18 17 20 19 22 21 24 23 4 30 26 32
ROOT
ATOM      1  C   UNL     1      -0.938   7.129 -10.082  1.00  0.00    +0.282 C 
ATOM      2  C   UNL     1      -0.819   6.717  -8.601  1.00  0.00    +0.202 C 
ATOM      3  C   UNL     1      -0.016   5.429  -8.530  1.00  0.00    +0.179 C 
ATOM      4  C   UNL     1       1.410   5.695  -9.021  1.00  0.00    +0.177 C 
ATOM      5  C   UNL     1       1.466   6.701 -10.196  1.00  0.00    +0.180 C 
ATOM      6  O   UNL     1       0.203   6.816 -10.879  1.00  0.00    -0.341 OA
ENDROOT
BRANCH   1   7
ATOM      7  O   UNL     1      -1.291   8.514 -10.123  1.00  0.00    -0.341 OA
BRANCH   7   8
ATOM      8  C   UNL     1      -2.691   8.726 -10.264  1.00  0.00    +0.184 C 
ATOM      9  C   UNL     1      -4.647   8.927 -11.541  1.00  0.00    +0.195 C 
ATOM     10  C   UNL     1      -3.279   8.245 -11.582  1.00  0.00    +0.179 C 
ATOM     11  O   UNL     1      -4.443  10.181 -10.840  1.00  0.00    -0.370 OA
ATOM     12  O   UNL     1      -2.460   8.675 -12.684  1.00  0.00    -0.342 OA
ATOM     13  C   UNL     1      -3.055  10.199 -10.418  1.00  0.00    +0.184 C 
ATOM     14  C   UNL     1      -2.294  10.081 -12.834  1.00  0.00    +0.279 C 
ATOM     15  C   UNL     1      -2.181  10.849 -11.499  1.00  0.00    +0.202 C 
BRANCH  14  16
ATOM     16  O   UNL     1      -3.377  10.589 -13.609  1.00  0.00    -0.366 OA
ATOM     17  H   UNL     1      -2.967  11.240 -14.206  1.00  0.00    +0.213 HD
ENDBRANCH  14  16
BRANCH  15  18
ATOM     18  O   UNL     1      -2.545  12.226 -11.670  1.00  0.00    -0.385 OA
ATOM     19  H   UNL     1      -1.718  12.715 -11.471  1.00  0.00    +0.211 HD
ENDBRANCH  15  18
ENDBRANCH   7   8
ENDBRANCH   1   7
BRANCH   2  20
ATOM     20  O   UNL     1      -2.112   6.500  -8.011  1.00  0.00    -0.385 OA
ATOM     21  H   UNL     1      -1.953   6.354  -7.058  1.00  0.00    +0.211 HD
ENDBRANCH   2  20
BRANCH   3  22
ATOM     22  O   UNL     1       0.032   4.942  -7.179  1.00  0.00    -0.387 OA
ATOM     23  H   UNL     1      -0.715   4.311  -7.113  1.00  0.00    +0.211 HD
ENDBRANCH   3  22
BRANCH   5  24
ATOM     24  C   UNL     1       2.056   8.080  -9.846  1.00  0.00    +0.220 C 
BRANCH  24  25
ATOM     25  O   UNL     1       3.056   8.401 -10.810  1.00  0.00    -0.245 OA
BRANCH  25  26
ATOM     26  S   UNL     1       2.564   8.953 -12.256  1.00  0.00    +0.397 S 
ATOM     27  O   UNL     1       2.468   7.859 -13.195  1.00  0.00    -0.169 OA
ATOM     28  O   UNL     1       3.298  10.162 -12.554  1.00  0.00    -0.169 OA
BRANCH  26  29
ATOM     29  O   UNL     1       1.068   9.451 -11.932  1.00  0.00    -0.264 OA
ATOM     30  H   UNL     1       0.553   8.659 -11.678  1.00  0.00    +0.236 HD
ENDBRANCH  26  29
ENDBRANCH  25  26
ENDBRANCH  24  25
ENDBRANCH   5  24
BRANCH   4  31
ATOM     31  O   UNL     1       2.212   6.133  -7.919  1.00  0.00    -0.387 OA
ATOM     32  H   UNL     1       2.595   5.308  -7.544  1.00  0.00    +0.211 HD
ENDBRANCH   4  31
TORSDOF 11
ENDMDL
MODEL 8
REMARK VINA RESULT:    -6.192      8.658     12.043
REMARK INTER + INTRA:         -10.294
REMARK INTER:                  -9.178
REMARK INTRA:                  -1.116
REMARK UNBOUND:                -1.206
REMARK SMILES O=S(=O)(O)OC[C@@H]1O[C@H](O[C@H]2[C@@H]3OC[C@H]2O[C@@H](O)[C@H]3O)[C@@H](O)[C@H](O)[C@@H]1O
REMARK SMILES IDX 9 1 21 2 23 3 25 4 7 5 8 6 10 7 11 8 14 9 15 10 13 11 16 12
REMARK SMILES IDX 12 13 17 14 19 15 18 16 20 18 22 20 24 22 6 24 5 25 2 26
REMARK SMILES IDX 1 27 3 28 4 29 26 31
REMARK H PARENT 18 17 20 19 22 21 24 23 4 30 26 32
ROOT
ATOM      1  C   UNL     1       3.057   7.748 -10.578  1.00  0.00    +0.282 C 
ATOM      2  C   UNL     1       3.384   6.315 -10.115  1.00  0.00    +0.202 C 
ATOM      3  C   UNL     1       3.301   6.277  -8.598  1.00  0.00    +0.179 C 
ATOM      4  C   UNL     1       1.860   6.554  -8.163  1.00  0.00    +0.177 C 
ATOM      5  C   UNL     1       1.152   7.602  -9.055  1.00  0.00    +0.180 C 
ATOM      6  O   UNL     1       2.085   8.423  -9.782  1.00  0.00    -0.341 OA
ENDROOT
BRANCH   1   7
ATOM      7  O   UNL     1       2.707   7.690 -11.964  1.00  0.00    -0.341 OA
BRANCH   7   8
ATOM      8  C   UNL     1       2.108   8.892 -12.436  1.00  0.00    +0.184 C 
ATOM      9  C   UNL     1       0.922  10.140 -14.027  1.00  0.00    +0.195 C 
ATOM     10  C   UNL     1       1.077   8.700 -13.537  1.00  0.00    +0.179 C 
ATOM     11  O   UNL     1       2.224  10.758 -13.858  1.00  0.00    -0.370 OA
ATOM     12  O   UNL     1       1.581   7.806 -14.546  1.00  0.00    -0.342 OA
ATOM     13  C   UNL     1       3.075   9.766 -13.227  1.00  0.00    +0.184 C 
ATOM     14  C   UNL     1       2.773   8.213 -15.210  1.00  0.00    +0.279 C 
ATOM     15  C   UNL     1       3.792   8.928 -14.295  1.00  0.00    +0.202 C 
BRANCH  14  16
ATOM     16  O   UNL     1       2.422   9.048 -16.310  1.00  0.00    -0.366 OA
ATOM     17  H   UNL     1       1.657   9.560 -15.993  1.00  0.00    +0.213 HD
ENDBRANCH  14  16
BRANCH  15  18
ATOM     18  O   UNL     1       4.676   9.753 -15.064  1.00  0.00    -0.385 OA
ATOM     19  H   UNL     1       5.062  10.368 -14.402  1.00  0.00    +0.211 HD
ENDBRANCH  15  18
ENDBRANCH   7   8
ENDBRANCH   1   7
BRANCH   2  20
ATOM     20  O   UNL     1       4.704   5.918 -10.526  1.00  0.00    -0.385 OA
ATOM     21  H   UNL     1       4.710   5.970 -11.502  1.00  0.00    +0.211 HD
ENDBRANCH   2  20
BRANCH   3  22
ATOM     22  O   UNL     1       3.705   4.987  -8.106  1.00  0.00    -0.387 OA
ATOM     23  H   UNL     1       4.651   5.093  -7.874  1.00  0.00    +0.211 HD
ENDBRANCH   3  22
BRANCH   5  24
ATOM     24  C   UNL     1       0.049   7.040  -9.971  1.00  0.00    +0.220 C 
BRANCH  24  25
ATOM     25  O   UNL     1      -1.160   7.751  -9.711  1.00  0.00    -0.245 OA
BRANCH  25  26
ATOM     26  S   UNL     1      -2.402   6.925  -9.071  1.00  0.00    +0.397 S 
ATOM     27  O   UNL     1      -2.940   6.006 -10.048  1.00  0.00    -0.169 OA
ATOM     28  O   UNL     1      -3.237   7.853  -8.343  1.00  0.00    -0.169 OA
BRANCH  26  29
ATOM     29  O   UNL     1      -1.670   6.053  -7.932  1.00  0.00    -0.264 OA
ATOM     30  H   UNL     1      -1.672   5.124  -8.239  1.00  0.00    +0.236 HD
ENDBRANCH  26  29
ENDBRANCH  25  26
ENDBRANCH  24  25
ENDBRANCH   5  24
BRANCH   4  31
ATOM     31  O   UNL     1       1.134   5.320  -8.129  1.00  0.00    -0.387 OA
ATOM     32  H   UNL     1       0.208   5.567  -8.347  1.00  0.00    +0.211 HD
ENDBRANCH   4  31
TORSDOF 11
ENDMDL
MODEL 9
REMARK VINA RESULT:    -6.121     10.101     13.229
REMARK INTER + INTRA:         -10.190
REMARK INTER:                  -9.324
REMARK INTRA:                  -0.866
REMARK UNBOUND:                -1.206
REMARK SMILES O=S(=O)(O)OC[C@@H]1O[C@H](O[C@H]2[C@@H]3OC[C@H]2O[C@@H](O)[C@H]3O)[C@@H](O)[C@H](O)[C@@H]1O
REMARK SMILES IDX 9 1 21 2 23 3 25 4 7 5 8 6 10 7 11 8 14 9 15 10 13 11 16 12
REMARK SMILES IDX 12 13 17 14 19 15 18 16 20 18 22 20 24 22 6 24 5 25 2 26
REMARK SMILES IDX 1 27 3 28 4 29 26 31
REMARK H PARENT 18 17 20 19 22 21 24 23 4 30 26 32
ROOT
ATOM      1  C   UNL     1       1.395   8.284 -10.724  1.00  0.00    +0.282 C 
ATOM      2  C   UNL     1       2.200   7.302  -9.851  1.00  0.00    +0.202 C 
ATOM      3  C   UNL     1       1.746   7.466  -8.410  1.00  0.00    +0.179 C 
ATOM      4  C   UNL     1       0.278   7.048  -8.292  1.00  0.00    +0.177 C 
ATOM      5  C   UNL     1      -0.564   7.444  -9.528  1.00  0.00    +0.180 C 
ATOM      6  O   UNL     1       0.051   8.497 -10.296  1.00  0.00    -0.341 OA
ENDROOT
BRANCH   1   7
ATOM      7  O   UNL     1       1.489   7.842 -12.081  1.00  0.00    -0.341 OA
BRANCH   7   8
ATOM      8  C   UNL     1       0.835   8.715 -12.996  1.00  0.00    +0.184 C 
ATOM      9  C   UNL     1       0.449   9.562 -15.147  1.00  0.00    +0.195 C 
ATOM     10  C   UNL     1       0.906   8.279 -14.452  1.00  0.00    +0.179 C 
ATOM     11  O   UNL     1       0.926  10.653 -14.319  1.00  0.00    -0.370 OA
ATOM     12  O   UNL     1       2.249   7.892 -14.796  1.00  0.00    -0.342 OA
ATOM     13  C   UNL     1       1.555  10.049 -13.159  1.00  0.00    +0.184 C 
ATOM     14  C   UNL     1       3.250   8.894 -14.651  1.00  0.00    +0.279 C 
ATOM     15  C   UNL     1       3.048   9.816 -13.428  1.00  0.00    +0.202 C 
BRANCH  14  16
ATOM     16  O   UNL     1       3.303   9.664 -15.849  1.00  0.00    -0.366 OA
ATOM     17  H   UNL     1       3.002  10.551 -15.583  1.00  0.00    +0.213 HD
ENDBRANCH  14  16
BRANCH  15  18
ATOM     18  O   UNL     1       3.721  11.067 -13.616  1.00  0.00    -0.385 OA
ATOM     19  H   UNL     1       3.186  11.704 -13.095  1.00  0.00    +0.211 HD
ENDBRANCH  15  18
ENDBRANCH   7   8
ENDBRANCH   1   7
BRANCH   2  20
ATOM     20  O   UNL     1       3.612   7.561  -9.934  1.00  0.00    -0.385 OA
ATOM     21  H   UNL     1       4.021   6.732 -10.253  1.00  0.00    +0.211 HD
ENDBRANCH   2  20
BRANCH   3  22
ATOM     22  O   UNL     1       2.543   6.649  -7.537  1.00  0.00    -0.387 OA
ATOM     23  H   UNL     1       1.904   6.040  -7.112  1.00  0.00    +0.211 HD
ENDBRANCH   3  22
BRANCH   5  24
ATOM     24  C   UNL     1      -1.007   6.269 -10.419  1.00  0.00    +0.220 C 
BRANCH  24  25
ATOM     25  O   UNL     1      -1.999   6.741 -11.329  1.00  0.00    -0.245 OA
BRANCH  25  26
ATOM     26  S   UNL     1      -3.328   5.832 -11.537  1.00  0.00    +0.397 S 
ATOM     27  O   UNL     1      -4.424   6.658 -11.990  1.00  0.00    -0.169 OA
ATOM     28  O   UNL     1      -3.451   4.942 -10.405  1.00  0.00    -0.169 OA
BRANCH  26  29
ATOM     29  O   UNL     1      -2.894   4.881 -12.761  1.00  0.00    -0.264 OA
ATOM     30  H   UNL     1      -3.702   4.703 -13.284  1.00  0.00    +0.236 HD
ENDBRANCH  26  29
ENDBRANCH  25  26
ENDBRANCH  24  25
ENDBRANCH   5  24
BRANCH   4  31
ATOM     31  O   UNL     1       0.210   5.640  -8.041  1.00  0.00    -0.387 OA
ATOM     32  H   UNL     1       0.970   5.454  -7.446  1.00  0.00    +0.211 HD
ENDBRANCH   4  31
TORSDOF 11
ENDMDL
