MODEL 1
REMARK VINA RESULT:    -8.072      0.000      0.000
REMARK INTER + INTRA:         -18.656
REMARK INTER:                 -16.565
REMARK INTRA:                  -2.091
REMARK UNBOUND:                -2.091
REMARK SMILES O=C[C@@H](O)[C@@H](O)[C@H](CO)O[C@H]1OC[C@@H](O[C@@H]2OC[C@H](O[C@H]3OC[C@H](O[C@H]4OC[C@H](O)[C@H](O)[C@@H]4O)[C@@H](O)[C@H]3O)[C@H](O)[C@@H]2O)[C@@H](O)[C@H]1O
REMARK SMILES IDX 15 1 16 2 19 3 18 4 39 5 17 6 41 7 20 8 21 9 24 10 23 11
REMARK SMILES IDX 35 12 22 13 37 14 25 15 26 16 28 17 29 18 27 19 31 20 33 21
REMARK SMILES IDX 30 22 32 24 34 26 36 28 38 30 40 32 42 34 14 36 13 37 43 38
REMARK SMILES IDX 12 39 45 40 11 41 44 42 46 44 10 46 7 47 8 48 9 49 5 51 3 52
REMARK SMILES IDX 2 53 1 54 4 55 6 57
REMARK H PARENT 30 23 32 25 34 27 36 29 38 31 40 33 42 35 44 43 46 45 9 50
REMARK H PARENT 4 56 6 58
ROOT
ATOM      1  O   UNL     1       3.761  12.463  -7.813  1.00  0.00    -0.341 OA
ENDROOT
BRANCH   1   2
ATOM      2  C   UNL     1       4.544  11.284  -7.605  1.00  0.00    +0.282 C 
ATOM      3  C   UNL     1       4.050   8.362  -7.713  1.00  0.00    +0.179 C 
ATOM      4  C   UNL     1       3.737   9.384  -8.818  1.00  0.00    +0.198 C 
ATOM      5  C   UNL     1       4.531   9.079  -6.428  1.00  0.00    +0.179 C 
ATOM      6  O   UNL     1       4.646  10.481  -8.788  1.00  0.00    -0.347 OA
ATOM      7  C   UNL     1       4.012  10.516  -6.368  1.00  0.00    +0.202 C 
BRANCH   3   8
ATOM      8  O   UNL     1       2.910   7.556  -7.374  1.00  0.00    -0.341 OA
BRANCH   8   9
ATOM      9  C   UNL     1       3.186   6.155  -7.264  1.00  0.00    +0.282 C 
ATOM     10  C   UNL     1       0.437   5.801  -7.284  1.00  0.00    +0.179 C 
ATOM     11  C   UNL     1       1.283   5.112  -6.207  1.00  0.00    +0.198 C 
ATOM     12  C   UNL     1       1.133   5.686  -8.656  1.00  0.00    +0.179 C 
ATOM     13  O   UNL     1       2.610   5.626  -6.069  1.00  0.00    -0.347 OA
ATOM     14  C   UNL     1       2.644   5.430  -8.515  1.00  0.00    +0.202 C 
BRANCH  10  15
ATOM     15  O   UNL     1      -0.868   5.202  -7.259  1.00  0.00    -0.341 OA
BRANCH  15  16
ATOM     16  C   UNL     1      -1.679   5.631  -6.159  1.00  0.00    +0.282 C 
ATOM     17  C   UNL     1      -3.244   7.319  -5.586  1.00  0.00    +0.198 C 
ATOM     18  C   UNL     1      -4.481   6.427  -5.737  1.00  0.00    +0.171 C 
ATOM     19  O   UNL     1      -2.217   6.919  -6.488  1.00  0.00    -0.347 OA
ATOM     20  C   UNL     1      -4.137   5.112  -6.461  1.00  0.00    +0.179 C 
ATOM     21  C   UNL     1      -2.796   4.574  -5.957  1.00  0.00    +0.202 C 
BRANCH  18  22
ATOM     22  O   UNL     1      -5.038   6.125  -4.447  1.00  0.00    -0.388 OA
ATOM     23  H   UNL     1      -5.195   6.988  -4.007  1.00  0.00    +0.211 HD
ENDBRANCH  18  22
BRANCH  20  24
ATOM     24  O   UNL     1      -5.162   4.133  -6.209  1.00  0.00    -0.387 OA
ATOM     25  H   UNL     1      -5.758   4.531  -5.541  1.00  0.00    +0.211 HD
ENDBRANCH  20  24
BRANCH  21  26
ATOM     26  O   UNL     1      -2.955   4.261  -4.552  1.00  0.00    -0.385 OA
ATOM     27  H   UNL     1      -3.620   4.907  -4.237  1.00  0.00    +0.211 HD
ENDBRANCH  21  26
ENDBRANCH  15  16
ENDBRANCH  10  15
BRANCH  12  28
ATOM     28  O   UNL     1       0.905   6.902  -9.400  1.00  0.00    -0.387 OA
ATOM     29  H   UNL     1       0.958   7.631  -8.748  1.00  0.00    +0.211 HD
ENDBRANCH  12  28
BRANCH  14  30
ATOM     30  O   UNL     1       3.313   5.845  -9.714  1.00  0.00    -0.385 OA
ATOM     31  H   UNL     1       2.852   6.638 -10.045  1.00  0.00    +0.211 HD
ENDBRANCH  14  30
ENDBRANCH   8   9
ENDBRANCH   3   8
BRANCH   5  32
ATOM     32  O   UNL     1       4.110   8.366  -5.256  1.00  0.00    -0.387 OA
ATOM     33  H   UNL     1       4.375   8.927  -4.495  1.00  0.00    +0.211 HD
ENDBRANCH   5  32
BRANCH   7  34
ATOM     34  O   UNL     1       2.571  10.491  -6.335  1.00  0.00    -0.385 OA
ATOM     35  H   UNL     1       2.296  11.420  -6.217  1.00  0.00    +0.211 HD
ENDBRANCH   7  34
ENDBRANCH   1   2
BRANCH   1  36
ATOM     36  C   UNL     1       4.108  13.543  -6.944  1.00  0.00    +0.179 C 
ATOM     37  C   UNL     1       2.901  14.452  -6.717  1.00  0.00    +0.198 C 
ATOM     38  C   UNL     1       5.258  14.362  -7.568  1.00  0.00    +0.179 C 
ATOM     39  O   UNL     1       3.169  15.501  -5.778  1.00  0.00    -0.347 OA
ATOM     40  C   UNL     1       5.182  15.851  -7.190  1.00  0.00    +0.202 C 
ATOM     41  C   UNL     1       4.510  16.010  -5.810  1.00  0.00    +0.282 C 
BRANCH  38  42
ATOM     42  O   UNL     1       5.255  14.261  -9.007  1.00  0.00    -0.387 OA
ATOM     43  H   UNL     1       5.319  13.301  -9.206  1.00  0.00    +0.211 HD
ENDBRANCH  38  42
BRANCH  40  44
ATOM     44  O   UNL     1       4.437  16.554  -8.208  1.00  0.00    -0.385 OA
ATOM     45  H   UNL     1       5.089  17.167  -8.609  1.00  0.00    +0.211 HD
ENDBRANCH  40  44
BRANCH  41  46
ATOM     46  O   UNL     1       4.513  17.391  -5.448  1.00  0.00    -0.341 OA
BRANCH  46  47
ATOM     47  C   UNL     1       4.497  17.631  -4.031  1.00  0.00    +0.178 C 
BRANCH  47  48
ATOM     48  C   UNL     1       5.235  16.478  -3.342  1.00  0.00    +0.191 C 
BRANCH  48  49
ATOM     49  O   UNL     1       5.160  16.598  -1.928  1.00  0.00    -0.394 OA
ATOM     50  H   UNL     1       6.075  16.557  -1.596  1.00  0.00    +0.210 HD
ENDBRANCH  48  49
ENDBRANCH  47  48
BRANCH  47  51
ATOM     51  C   UNL     1       5.092  19.032  -3.729  1.00  0.00    +0.181 C 
BRANCH  51  52
ATOM     52  C   UNL     1       4.447  19.761  -2.538  1.00  0.00    +0.209 C 
BRANCH  52  53
ATOM     53  C   UNL     1       3.021  19.257  -2.349  1.00  0.00    +0.258 C 
ATOM     54  O   UNL     1       2.677  18.609  -1.360  1.00  0.00    -0.300 OA
ENDBRANCH  52  53
BRANCH  52  55
ATOM     55  O   UNL     1       5.164  19.546  -1.322  1.00  0.00    -0.383 OA
ATOM     56  H   UNL     1       6.110  19.676  -1.542  1.00  0.00    +0.211 HD
ENDBRANCH  52  55
ENDBRANCH  51  52
BRANCH  51  57
ATOM     57  O   UNL     1       6.505  18.893  -3.458  1.00  0.00    -0.387 OA
ATOM     58  H   UNL     1       6.955  19.655  -3.887  1.00  0.00    +0.211 HD
ENDBRANCH  51  57
ENDBRANCH  47  51
ENDBRANCH  46  47
ENDBRANCH  41  46
ENDBRANCH   1  36
TORSDOF 24
ENDMDL
MODEL 2
REMARK VINA RESULT:    -7.937      1.355      2.130
REMARK INTER + INTRA:         -18.379
REMARK INTER:                 -15.513
REMARK INTRA:                  -2.866
REMARK UNBOUND:                -2.091
REMARK SMILES O=C[C@@H](O)[C@@H](O)[C@H](CO)O[C@H]1OC[C@@H](O[C@@H]2OC[C@H](O[C@H]3OC[C@H](O[C@H]4OC[C@H](O)[C@H](O)[C@@H]4O)[C@@H](O)[C@H]3O)[C@H](O)[C@@H]2O)[C@@H](O)[C@H]1O
REMARK SMILES IDX 15 1 16 2 19 3 18 4 39 5 17 6 41 7 20 8 21 9 24 10 23 11
REMARK SMILES IDX 35 12 22 13 37 14 25 15 26 16 28 17 29 18 27 19 31 20 33 21
REMARK SMILES IDX 30 22 32 24 34 26 36 28 38 30 40 32 42 34 14 36 13 37 43 38
REMARK SMILES IDX 12 39 45 40 11 41 44 42 46 44 10 46 7 47 8 48 9 49 5 51 3 52
REMARK SMILES IDX 2 53 1 54 4 55 6 57
REMARK H PARENT 30 23 32 25 34 27 36 29 38 31 40 33 42 35 44 43 46 45 9 50
REMARK H PARENT 4 56 6 58
ROOT
ATOM      1  O   UNL     1       3.873  12.418  -7.706  1.00  0.00    -0.341 OA
ENDROOT
BRANCH   1   2
ATOM      2  C   UNL     1       4.695  11.259  -7.537  1.00  0.00    +0.282 C 
ATOM      3  C   UNL     1       4.277   8.325  -7.647  1.00  0.00    +0.179 C 
ATOM      4  C   UNL     1       3.894   9.345  -8.731  1.00  0.00    +0.198 C 
ATOM      5  C   UNL     1       4.788   9.047  -6.377  1.00  0.00    +0.179 C 
ATOM      6  O   UNL     1       4.773  10.467  -8.729  1.00  0.00    -0.347 OA
ATOM      7  C   UNL     1       4.233  10.469  -6.286  1.00  0.00    +0.202 C 
BRANCH   3   8
ATOM      8  O   UNL     1       3.173   7.486  -7.270  1.00  0.00    -0.341 OA
BRANCH   8   9
ATOM      9  C   UNL     1       3.487   6.090  -7.200  1.00  0.00    +0.282 C 
ATOM     10  C   UNL     1       0.776   5.694  -6.775  1.00  0.00    +0.179 C 
ATOM     11  C   UNL     1       1.796   5.026  -5.846  1.00  0.00    +0.198 C 
ATOM     12  C   UNL     1       1.245   5.580  -8.240  1.00  0.00    +0.179 C 
ATOM     13  O   UNL     1       3.120   5.561  -5.925  1.00  0.00    -0.347 OA
ATOM     14  C   UNL     1       2.763   5.349  -8.344  1.00  0.00    +0.202 C 
BRANCH  10  15
ATOM     15  O   UNL     1      -0.497   5.074  -6.538  1.00  0.00    -0.341 OA
BRANCH  15  16
ATOM     16  C   UNL     1      -1.612   5.949  -6.750  1.00  0.00    +0.282 C 
ATOM     17  C   UNL     1      -3.553   6.147  -8.099  1.00  0.00    +0.198 C 
ATOM     18  C   UNL     1      -4.531   5.681  -7.016  1.00  0.00    +0.171 C 
ATOM     19  O   UNL     1      -2.284   5.519  -7.941  1.00  0.00    -0.347 OA
ATOM     20  C   UNL     1      -3.788   5.043  -5.829  1.00  0.00    +0.179 C 
ATOM     21  C   UNL     1      -2.530   5.851  -5.503  1.00  0.00    +0.202 C 
BRANCH  18  22
ATOM     22  O   UNL     1      -5.314   6.790  -6.543  1.00  0.00    -0.388 OA
ATOM     23  H   UNL     1      -4.971   7.586  -7.003  1.00  0.00    +0.211 HD
ENDBRANCH  18  22
BRANCH  20  24
ATOM     24  O   UNL     1      -4.644   5.017  -4.671  1.00  0.00    -0.387 OA
ATOM     25  H   UNL     1      -5.540   5.250  -4.993  1.00  0.00    +0.211 HD
ENDBRANCH  20  24
BRANCH  21  26
ATOM     26  O   UNL     1      -2.959   7.168  -5.081  1.00  0.00    -0.385 OA
ATOM     27  H   UNL     1      -3.313   7.027  -4.179  1.00  0.00    +0.211 HD
ENDBRANCH  21  26
ENDBRANCH  15  16
ENDBRANCH  10  15
BRANCH  12  28
ATOM     28  O   UNL     1       0.880   6.787  -8.943  1.00  0.00    -0.387 OA
ATOM     29  H   UNL     1       0.164   6.532  -9.562  1.00  0.00    +0.211 HD
ENDBRANCH  12  28
BRANCH  14  30
ATOM     30  O   UNL     1       3.222   5.765  -9.637  1.00  0.00    -0.385 OA
ATOM     31  H   UNL     1       4.184   5.607  -9.670  1.00  0.00    +0.211 HD
ENDBRANCH  14  30
ENDBRANCH   8   9
ENDBRANCH   3   8
BRANCH   5  32
ATOM     32  O   UNL     1       4.432   8.315  -5.194  1.00  0.00    -0.387 OA
ATOM     33  H   UNL     1       3.509   8.577  -4.988  1.00  0.00    +0.211 HD
ENDBRANCH   5  32
BRANCH   7  34
ATOM     34  O   UNL     1       2.796  10.404  -6.197  1.00  0.00    -0.385 OA
ATOM     35  H   UNL     1       2.537  11.136  -5.606  1.00  0.00    +0.211 HD
ENDBRANCH   7  34
ENDBRANCH   1   2
BRANCH   1  36
ATOM     36  C   UNL     1       4.198  13.487  -6.816  1.00  0.00    +0.179 C 
ATOM     37  C   UNL     1       2.937  14.256  -6.425  1.00  0.00    +0.198 C 
ATOM     38  C   UNL     1       5.194  14.447  -7.500  1.00  0.00    +0.179 C 
ATOM     39  O   UNL     1       3.194  15.283  -5.459  1.00  0.00    -0.347 OA
ATOM     40  C   UNL     1       5.012  15.901  -7.035  1.00  0.00    +0.202 C 
ATOM     41  C   UNL     1       4.469  15.928  -5.590  1.00  0.00    +0.282 C 
BRANCH  38  42
ATOM     42  O   UNL     1       5.057  14.412  -8.935  1.00  0.00    -0.387 OA
ATOM     43  H   UNL     1       5.760  13.804  -9.254  1.00  0.00    +0.211 HD
ENDBRANCH  38  42
BRANCH  40  44
ATOM     44  O   UNL     1       4.103  16.570  -7.936  1.00  0.00    -0.385 OA
ATOM     45  H   UNL     1       3.995  17.467  -7.554  1.00  0.00    +0.211 HD
ENDBRANCH  40  44
BRANCH  41  46
ATOM     46  O   UNL     1       4.374  17.284  -5.154  1.00  0.00    -0.341 OA
BRANCH  46  47
ATOM     47  C   UNL     1       3.311  17.531  -4.218  1.00  0.00    +0.178 C 
BRANCH  47  48
ATOM     48  C   UNL     1       3.908  17.526  -2.806  1.00  0.00    +0.191 C 
BRANCH  48  49
ATOM     49  O   UNL     1       2.887  17.422  -1.822  1.00  0.00    -0.394 OA
ATOM     50  H   UNL     1       2.421  18.278  -1.813  1.00  0.00    +0.210 HD
ENDBRANCH  48  49
ENDBRANCH  47  48
BRANCH  47  51
ATOM     51  C   UNL     1       2.580  18.848  -4.590  1.00  0.00    +0.181 C 
BRANCH  51  52
ATOM     52  C   UNL     1       1.710  18.764  -5.856  1.00  0.00    +0.209 C 
BRANCH  52  53
ATOM     53  C   UNL     1       2.416  19.477  -7.002  1.00  0.00    +0.258 C 
ATOM     54  O   UNL     1       2.422  19.032  -8.151  1.00  0.00    -0.300 OA
ENDBRANCH  52  53
BRANCH  52  55
ATOM     55  O   UNL     1       1.462  17.415  -6.250  1.00  0.00    -0.383 OA
ATOM     56  H   UNL     1       1.196  17.455  -7.192  1.00  0.00    +0.211 HD
ENDBRANCH  52  55
ENDBRANCH  51  52
BRANCH  51  57
ATOM     57  O   UNL     1       1.732  19.242  -3.488  1.00  0.00    -0.387 OA
ATOM     58  H   UNL     1       0.907  18.710  -3.557  1.00  0.00    +0.211 HD
ENDBRANCH  51  57
ENDBRANCH  47  51
ENDBRANCH  46  47
ENDBRANCH  41  46
ENDBRANCH   1  36
TORSDOF 24
ENDMDL
MODEL 3
REMARK VINA RESULT:    -7.651      9.128     15.660
REMARK INTER + INTRA:         -17.793
REMARK INTER:                 -15.068
REMARK INTRA:                  -2.725
REMARK UNBOUND:                -2.091
REMARK SMILES O=C[C@@H](O)[C@@H](O)[C@H](CO)O[C@H]1OC[C@@H](O[C@@H]2OC[C@H](O[C@H]3OC[C@H](O[C@H]4OC[C@H](O)[C@H](O)[C@@H]4O)[C@@H](O)[C@H]3O)[C@H](O)[C@@H]2O)[C@@H](O)[C@H]1O
REMARK SMILES IDX 15 1 16 2 19 3 18 4 39 5 17 6 41 7 20 8 21 9 24 10 23 11
REMARK SMILES IDX 35 12 22 13 37 14 25 15 26 16 28 17 29 18 27 19 31 20 33 21
REMARK SMILES IDX 30 22 32 24 34 26 36 28 38 30 40 32 42 34 14 36 13 37 43 38
REMARK SMILES IDX 12 39 45 40 11 41 44 42 46 44 10 46 7 47 8 48 9 49 5 51 3 52
REMARK SMILES IDX 2 53 1 54 4 55 6 57
REMARK H PARENT 30 23 32 25 34 27 36 29 38 31 40 33 42 35 44 43 46 45 9 50
REMARK H PARENT 4 56 6 58
ROOT
ATOM      1  O   UNL     1      -2.410   5.044 -16.790  1.00  0.00    -0.341 OA
ENDROOT
BRANCH   1   2
ATOM      2  C   UNL     1      -3.003   4.612 -15.562  1.00  0.00    +0.282 C 
ATOM      3  C   UNL     1      -4.771   5.828 -13.515  1.00  0.00    +0.179 C 
ATOM      4  C   UNL     1      -5.030   5.769 -15.029  1.00  0.00    +0.198 C 
ATOM      5  C   UNL     1      -3.357   5.294 -13.183  1.00  0.00    +0.179 C 
ATOM      6  O   UNL     1      -4.435   4.616 -15.617  1.00  0.00    -0.347 OA
ATOM      7  C   UNL     1      -2.417   5.429 -14.382  1.00  0.00    +0.202 C 
BRANCH   3   8
ATOM      8  O   UNL     1      -4.878   7.163 -12.992  1.00  0.00    -0.341 OA
BRANCH   8   9
ATOM      9  C   UNL     1      -6.212   7.561 -12.653  1.00  0.00    +0.282 C 
ATOM     10  C   UNL     1      -5.568   6.829 -10.057  1.00  0.00    +0.179 C 
ATOM     11  C   UNL     1      -6.870   6.321 -10.689  1.00  0.00    +0.198 C 
ATOM     12  C   UNL     1      -5.363   8.319 -10.400  1.00  0.00    +0.179 C 
ATOM     13  O   UNL     1      -6.938   6.457 -12.111  1.00  0.00    -0.347 OA
ATOM     14  C   UNL     1      -6.152   8.736 -11.654  1.00  0.00    +0.202 C 
BRANCH  10  15
ATOM     15  O   UNL     1      -5.646   6.578  -8.646  1.00  0.00    -0.341 OA
BRANCH  15  16
ATOM     16  C   UNL     1      -4.430   6.863  -7.943  1.00  0.00    +0.282 C 
ATOM     17  C   UNL     1      -3.661   7.442  -5.775  1.00  0.00    +0.198 C 
ATOM     18  C   UNL     1      -3.166   6.037  -5.417  1.00  0.00    +0.171 C 
ATOM     19  O   UNL     1      -4.782   7.376  -6.651  1.00  0.00    -0.347 OA
ATOM     20  C   UNL     1      -3.692   4.987  -6.412  1.00  0.00    +0.179 C 
ATOM     21  C   UNL     1      -3.626   5.540  -7.838  1.00  0.00    +0.202 C 
BRANCH  18  22
ATOM     22  O   UNL     1      -1.729   6.003  -5.409  1.00  0.00    -0.388 OA
ATOM     23  H   UNL     1      -1.471   5.161  -5.842  1.00  0.00    +0.211 HD
ENDBRANCH  18  22
BRANCH  20  24
ATOM     24  O   UNL     1      -2.892   3.793  -6.334  1.00  0.00    -0.387 OA
ATOM     25  H   UNL     1      -3.478   3.057  -6.612  1.00  0.00    +0.211 HD
ENDBRANCH  20  24
BRANCH  21  26
ATOM     26  O   UNL     1      -2.230   5.766  -8.151  1.00  0.00    -0.385 OA
ATOM     27  H   UNL     1      -2.229   6.615  -8.640  1.00  0.00    +0.211 HD
ENDBRANCH  21  26
ENDBRANCH  15  16
ENDBRANCH  10  15
BRANCH  12  28
ATOM     28  O   UNL     1      -3.954   8.564 -10.599  1.00  0.00    -0.387 OA
ATOM     29  H   UNL     1      -3.830   8.651 -11.566  1.00  0.00    +0.211 HD
ENDBRANCH  12  28
BRANCH  14  30
ATOM     30  O   UNL     1      -5.552   9.906 -12.228  1.00  0.00    -0.385 OA
ATOM     31  H   UNL     1      -5.114   9.633 -13.056  1.00  0.00    +0.211 HD
ENDBRANCH  14  30
ENDBRANCH   8   9
ENDBRANCH   3   8
BRANCH   5  32
ATOM     32  O   UNL     1      -2.799   5.986 -12.056  1.00  0.00    -0.387 OA
ATOM     33  H   UNL     1      -3.073   5.471 -11.266  1.00  0.00    +0.211 HD
ENDBRANCH   5  32
BRANCH   7  34
ATOM     34  O   UNL     1      -2.285   6.826 -14.716  1.00  0.00    -0.385 OA
ATOM     35  H   UNL     1      -3.062   7.037 -15.268  1.00  0.00    +0.211 HD
ENDBRANCH   7  34
ENDBRANCH   1   2
BRANCH   1  36
ATOM     36  C   UNL     1      -2.421   4.048 -17.814  1.00  0.00    +0.179 C 
ATOM     37  C   UNL     1      -2.243   2.657 -17.206  1.00  0.00    +0.198 C 
ATOM     38  C   UNL     1      -1.280   4.322 -18.816  1.00  0.00    +0.179 C 
ATOM     39  O   UNL     1      -2.340   1.612 -18.182  1.00  0.00    -0.347 OA
ATOM     40  C   UNL     1      -0.720   3.026 -19.427  1.00  0.00    +0.202 C 
ATOM     41  C   UNL     1      -1.824   1.948 -19.479  1.00  0.00    +0.282 C 
BRANCH  38  42
ATOM     42  O   UNL     1      -0.191   5.032 -18.192  1.00  0.00    -0.387 OA
ATOM     43  H   UNL     1      -0.337   4.945 -17.224  1.00  0.00    +0.211 HD
ENDBRANCH  38  42
BRANCH  40  44
ATOM     44  O   UNL     1       0.397   2.577 -18.630  1.00  0.00    -0.385 OA
ATOM     45  H   UNL     1       1.178   3.001 -19.042  1.00  0.00    +0.211 HD
ENDBRANCH  40  44
BRANCH  41  46
ATOM     46  O   UNL     1      -1.305   0.779 -20.112  1.00  0.00    -0.341 OA
BRANCH  46  47
ATOM     47  C   UNL     1      -1.487  -0.431 -19.359  1.00  0.00    +0.178 C 
BRANCH  47  48
ATOM     48  C   UNL     1      -2.166  -1.462 -20.268  1.00  0.00    +0.191 C 
BRANCH  48  49
ATOM     49  O   UNL     1      -2.482  -2.646 -19.548  1.00  0.00    -0.394 OA
ATOM     50  H   UNL     1      -3.410  -2.859 -19.756  1.00  0.00    +0.210 HD
ENDBRANCH  48  49
ENDBRANCH  47  48
BRANCH  47  51
ATOM     51  C   UNL     1      -0.124  -0.900 -18.781  1.00  0.00    +0.181 C 
BRANCH  51  52
ATOM     52  C   UNL     1       1.078  -0.683 -19.716  1.00  0.00    +0.209 C 
BRANCH  52  53
ATOM     53  C   UNL     1       2.196  -1.644 -19.334  1.00  0.00    +0.258 C 
ATOM     54  O   UNL     1       2.363  -2.035 -18.177  1.00  0.00    -0.300 OA
ENDBRANCH  52  53
BRANCH  52  55
ATOM     55  O   UNL     1       0.742  -0.905 -21.086  1.00  0.00    -0.383 OA
ATOM     56  H   UNL     1      -0.208  -1.142 -21.094  1.00  0.00    +0.211 HD
ENDBRANCH  52  55
ENDBRANCH  51  52
BRANCH  51  57
ATOM     57  O   UNL     1       0.132  -0.191 -17.548  1.00  0.00    -0.387 OA
ATOM     58  H   UNL     1      -0.269   0.702 -17.643  1.00  0.00    +0.211 HD
ENDBRANCH  51  57
ENDBRANCH  47  51
ENDBRANCH  46  47
ENDBRANCH  41  46
ENDBRANCH   1  36
TORSDOF 24
ENDMDL
MODEL 4
REMARK VINA RESULT:    -7.414      9.734     14.625
REMARK INTER + INTRA:         -17.306
REMARK INTER:                 -15.244
REMARK INTRA:                  -2.062
REMARK UNBOUND:                -2.091
REMARK SMILES O=C[C@@H](O)[C@@H](O)[C@H](CO)O[C@H]1OC[C@@H](O[C@@H]2OC[C@H](O[C@H]3OC[C@H](O[C@H]4OC[C@H](O)[C@H](O)[C@@H]4O)[C@@H](O)[C@H]3O)[C@H](O)[C@@H]2O)[C@@H](O)[C@H]1O
REMARK SMILES IDX 15 1 16 2 19 3 18 4 39 5 17 6 41 7 20 8 21 9 24 10 23 11
REMARK SMILES IDX 35 12 22 13 37 14 25 15 26 16 28 17 29 18 27 19 31 20 33 21
REMARK SMILES IDX 30 22 32 24 34 26 36 28 38 30 40 32 42 34 14 36 13 37 43 38
REMARK SMILES IDX 12 39 45 40 11 41 44 42 46 44 10 46 7 47 8 48 9 49 5 51 3 52
REMARK SMILES IDX 2 53 1 54 4 55 6 57
REMARK H PARENT 30 23 32 25 34 27 36 29 38 31 40 33 42 35 44 43 46 45 9 50
REMARK H PARENT 4 56 6 58
ROOT
ATOM      1  O   UNL     1      -3.378   7.117 -13.259  1.00  0.00    -0.341 OA
ENDROOT
BRANCH   1   2
ATOM      2  C   UNL     1      -3.033   5.757 -13.537  1.00  0.00    +0.282 C 
ATOM      3  C   UNL     1      -1.947   4.277 -15.866  1.00  0.00    +0.179 C 
ATOM      4  C   UNL     1      -1.342   5.532 -15.217  1.00  0.00    +0.198 C 
ATOM      5  C   UNL     1      -3.322   3.947 -15.238  1.00  0.00    +0.179 C 
ATOM      6  O   UNL     1      -1.638   5.595 -13.825  1.00  0.00    -0.347 OA
ATOM      7  C   UNL     1      -3.970   5.195 -14.637  1.00  0.00    +0.202 C 
BRANCH   3   8
ATOM      8  O   UNL     1      -2.128   4.427 -17.284  1.00  0.00    -0.341 OA
BRANCH   8   9
ATOM      9  C   UNL     1      -1.467   3.433 -18.075  1.00  0.00    +0.282 C 
ATOM     10  C   UNL     1      -3.717   3.490 -19.692  1.00  0.00    +0.179 C 
ATOM     11  C   UNL     1      -3.165   2.145 -19.206  1.00  0.00    +0.198 C 
ATOM     12  C   UNL     1      -2.557   4.407 -20.132  1.00  0.00    +0.179 C 
ATOM     13  O   UNL     1      -2.241   2.234 -18.118  1.00  0.00    -0.347 OA
ATOM     14  C   UNL     1      -1.220   3.992 -19.492  1.00  0.00    +0.202 C 
BRANCH  10  15
ATOM     15  O   UNL     1      -4.654   3.219 -20.745  1.00  0.00    -0.341 OA
BRANCH  15  16
ATOM     16  C   UNL     1      -4.314   3.837 -21.993  1.00  0.00    +0.282 C 
ATOM     17  C   UNL     1      -3.736   3.266 -24.222  1.00  0.00    +0.198 C 
ATOM     18  C   UNL     1      -5.118   3.570 -24.812  1.00  0.00    +0.171 C 
ATOM     19  O   UNL     1      -3.848   2.809 -22.878  1.00  0.00    -0.347 OA
ATOM     20  C   UNL     1      -6.175   3.733 -23.705  1.00  0.00    +0.179 C 
ATOM     21  C   UNL     1      -5.591   4.531 -22.537  1.00  0.00    +0.202 C 
BRANCH  18  22
ATOM     22  O   UNL     1      -5.069   4.770 -25.601  1.00  0.00    -0.388 OA
ATOM     23  H   UNL     1      -5.956   4.867 -26.009  1.00  0.00    +0.211 HD
ENDBRANCH  18  22
BRANCH  20  24
ATOM     24  O   UNL     1      -7.323   4.430 -24.223  1.00  0.00    -0.387 OA
ATOM     25  H   UNL     1      -7.654   4.989 -23.489  1.00  0.00    +0.211 HD
ENDBRANCH  20  24
BRANCH  21  26
ATOM     26  O   UNL     1      -5.279   5.856 -23.031  1.00  0.00    -0.385 OA
ATOM     27  H   UNL     1      -6.045   6.087 -23.597  1.00  0.00    +0.211 HD
ENDBRANCH  21  26
ENDBRANCH  15  16
ENDBRANCH  10  15
BRANCH  12  28
ATOM     28  O   UNL     1      -2.875   5.769 -19.772  1.00  0.00    -0.387 OA
ATOM     29  H   UNL     1      -3.723   5.974 -20.217  1.00  0.00    +0.211 HD
ENDBRANCH  12  28
BRANCH  14  30
ATOM     30  O   UNL     1      -0.325   5.114 -19.485  1.00  0.00    -0.385 OA
ATOM     31  H   UNL     1      -0.401   5.541 -18.612  1.00  0.00    +0.211 HD
ENDBRANCH  14  30
ENDBRANCH   8   9
ENDBRANCH   3   8
BRANCH   5  32
ATOM     32  O   UNL     1      -4.204   3.367 -16.210  1.00  0.00    -0.387 OA
ATOM     33  H   UNL     1      -3.671   2.693 -16.684  1.00  0.00    +0.211 HD
ENDBRANCH   5  32
BRANCH   7  34
ATOM     34  O   UNL     1      -4.195   6.156 -15.688  1.00  0.00    -0.385 OA
ATOM     35  H   UNL     1      -3.626   5.870 -16.429  1.00  0.00    +0.211 HD
ENDBRANCH   7  34
ENDBRANCH   1   2
BRANCH   1  36
ATOM     36  C   UNL     1      -3.653   7.368 -11.879  1.00  0.00    +0.179 C 
ATOM     37  C   UNL     1      -3.475   6.090 -11.060  1.00  0.00    +0.198 C 
ATOM     38  C   UNL     1      -5.100   7.881 -11.724  1.00  0.00    +0.179 C 
ATOM     39  O   UNL     1      -3.649   6.307  -9.655  1.00  0.00    -0.347 OA
ATOM     40  C   UNL     1      -5.728   7.453 -10.387  1.00  0.00    +0.202 C 
ATOM     41  C   UNL     1      -4.628   7.300  -9.314  1.00  0.00    +0.282 C 
BRANCH  38  42
ATOM     42  O   UNL     1      -5.945   7.404 -12.791  1.00  0.00    -0.387 OA
ATOM     43  H   UNL     1      -5.600   6.514 -13.025  1.00  0.00    +0.211 HD
ENDBRANCH  38  42
BRANCH  40  44
ATOM     44  O   UNL     1      -6.434   6.208 -10.578  1.00  0.00    -0.385 OA
ATOM     45  H   UNL     1      -7.377   6.469 -10.641  1.00  0.00    +0.211 HD
ENDBRANCH  40  44
BRANCH  41  46
ATOM     46  O   UNL     1      -5.237   6.971  -8.066  1.00  0.00    -0.341 OA
BRANCH  46  47
ATOM     47  C   UNL     1      -4.343   6.384  -7.107  1.00  0.00    +0.178 C 
BRANCH  47  48
ATOM     48  C   UNL     1      -4.221   7.342  -5.917  1.00  0.00    +0.191 C 
BRANCH  48  49
ATOM     49  O   UNL     1      -2.866   7.480  -5.511  1.00  0.00    -0.394 OA
ATOM     50  H   UNL     1      -2.753   8.406  -5.228  1.00  0.00    +0.210 HD
ENDBRANCH  48  49
ENDBRANCH  47  48
BRANCH  47  51
ATOM     51  C   UNL     1      -4.840   4.964  -6.726  1.00  0.00    +0.181 C 
BRANCH  51  52
ATOM     52  C   UNL     1      -4.003   4.259  -5.645  1.00  0.00    +0.209 C 
BRANCH  52  53
ATOM     53  C   UNL     1      -4.877   3.257  -4.902  1.00  0.00    +0.258 C 
ATOM     54  O   UNL     1      -5.423   3.525  -3.830  1.00  0.00    -0.300 OA
ENDBRANCH  52  53
BRANCH  52  55
ATOM     55  O   UNL     1      -2.888   3.560  -6.199  1.00  0.00    -0.383 OA
ATOM     56  H   UNL     1      -2.161   4.214  -6.251  1.00  0.00    +0.211 HD
ENDBRANCH  52  55
ENDBRANCH  51  52
BRANCH  51  57
ATOM     57  O   UNL     1      -6.202   5.056  -6.250  1.00  0.00    -0.387 OA
ATOM     58  H   UNL     1      -6.181   4.866  -5.285  1.00  0.00    +0.211 HD
ENDBRANCH  51  57
ENDBRANCH  47  51
ENDBRANCH  46  47
ENDBRANCH  41  46
ENDBRANCH   1  36
TORSDOF 24
ENDMDL
MODEL 5
REMARK VINA RESULT:    -6.996      8.891     15.184
REMARK INTER + INTRA:         -16.449
REMARK INTER:                 -14.702
REMARK INTRA:                  -1.747
REMARK UNBOUND:                -2.091
REMARK SMILES O=C[C@@H](O)[C@@H](O)[C@H](CO)O[C@H]1OC[C@@H](O[C@@H]2OC[C@H](O[C@H]3OC[C@H](O[C@H]4OC[C@H](O)[C@H](O)[C@@H]4O)[C@@H](O)[C@H]3O)[C@H](O)[C@@H]2O)[C@@H](O)[C@H]1O
REMARK SMILES IDX 15 1 16 2 19 3 18 4 39 5 17 6 41 7 20 8 21 9 24 10 23 11
REMARK SMILES IDX 35 12 22 13 37 14 25 15 26 16 28 17 29 18 27 19 31 20 33 21
REMARK SMILES IDX 30 22 32 24 34 26 36 28 38 30 40 32 42 34 14 36 13 37 43 38
REMARK SMILES IDX 12 39 45 40 11 41 44 42 46 44 10 46 7 47 8 48 9 49 5 51 3 52
REMARK SMILES IDX 2 53 1 54 4 55 6 57
REMARK H PARENT 30 23 32 25 34 27 36 29 38 31 40 33 42 35 44 43 46 45 9 50
REMARK H PARENT 4 56 6 58
ROOT
ATOM      1  O   UNL     1      -2.742   5.188 -16.047  1.00  0.00    -0.341 OA
ENDROOT
BRANCH   1   2
ATOM      2  C   UNL     1      -1.846   5.478 -14.970  1.00  0.00    +0.282 C 
ATOM      3  C   UNL     1      -2.111   5.938 -12.053  1.00  0.00    +0.179 C 
ATOM      4  C   UNL     1      -2.649   4.733 -12.841  1.00  0.00    +0.198 C 
ATOM      5  C   UNL     1      -1.525   7.001 -13.013  1.00  0.00    +0.179 C 
ATOM      6  O   UNL     1      -1.836   4.446 -13.976  1.00  0.00    -0.347 OA
ATOM      7  C   UNL     1      -2.146   6.891 -14.407  1.00  0.00    +0.202 C 
BRANCH   3   8
ATOM      8  O   UNL     1      -3.128   6.569 -11.256  1.00  0.00    -0.341 OA
BRANCH   8   9
ATOM      9  C   UNL     1      -4.461   6.128 -11.540  1.00  0.00    +0.282 C 
ATOM     10  C   UNL     1      -5.062   6.879  -8.940  1.00  0.00    +0.179 C 
ATOM     11  C   UNL     1      -5.485   5.496  -9.448  1.00  0.00    +0.198 C 
ATOM     12  C   UNL     1      -5.337   7.945 -10.022  1.00  0.00    +0.179 C 
ATOM     13  O   UNL     1      -4.837   5.076 -10.652  1.00  0.00    -0.347 OA
ATOM     14  C   UNL     1      -5.427   7.327 -11.429  1.00  0.00    +0.202 C 
BRANCH  10  15
ATOM     15  O   UNL     1      -5.766   7.124  -7.713  1.00  0.00    -0.341 OA
BRANCH  15  16
ATOM     16  C   UNL     1      -5.019   6.775  -6.541  1.00  0.00    +0.282 C 
ATOM     17  C   UNL     1      -4.368   4.873  -5.282  1.00  0.00    +0.198 C 
ATOM     18  C   UNL     1      -2.935   4.826  -5.822  1.00  0.00    +0.171 C 
ATOM     19  O   UNL     1      -5.263   5.390  -6.263  1.00  0.00    -0.347 OA
ATOM     20  C   UNL     1      -2.771   5.732  -7.055  1.00  0.00    +0.179 C 
ATOM     21  C   UNL     1      -3.521   7.049  -6.838  1.00  0.00    +0.202 C 
BRANCH  18  22
ATOM     22  O   UNL     1      -2.006   5.237  -4.805  1.00  0.00    -0.388 OA
ATOM     23  H   UNL     1      -1.112   5.150  -5.198  1.00  0.00    +0.211 HD
ENDBRANCH  18  22
BRANCH  20  24
ATOM     24  O   UNL     1      -1.377   6.016  -7.272  1.00  0.00    -0.387 OA
ATOM     25  H   UNL     1      -1.348   6.849  -7.789  1.00  0.00    +0.211 HD
ENDBRANCH  20  24
BRANCH  21  26
ATOM     26  O   UNL     1      -2.895   7.726  -5.722  1.00  0.00    -0.385 OA
ATOM     27  H   UNL     1      -3.635   7.905  -5.105  1.00  0.00    +0.211 HD
ENDBRANCH  21  26
ENDBRANCH  15  16
ENDBRANCH  10  15
BRANCH  12  28
ATOM     28  O   UNL     1      -4.285   8.933  -9.983  1.00  0.00    -0.387 OA
ATOM     29  H   UNL     1      -4.413   9.494 -10.774  1.00  0.00    +0.211 HD
ENDBRANCH  12  28
BRANCH  14  30
ATOM     30  O   UNL     1      -5.155   8.337 -12.411  1.00  0.00    -0.385 OA
ATOM     31  H   UNL     1      -5.866   8.293 -13.077  1.00  0.00    +0.211 HD
ENDBRANCH  14  30
ENDBRANCH   8   9
ENDBRANCH   3   8
BRANCH   5  32
ATOM     32  O   UNL     1      -1.729   8.325 -12.499  1.00  0.00    -0.387 OA
ATOM     33  H   UNL     1      -0.832   8.711 -12.396  1.00  0.00    +0.211 HD
ENDBRANCH   5  32
BRANCH   7  34
ATOM     34  O   UNL     1      -3.563   7.134 -14.306  1.00  0.00    -0.385 OA
ATOM     35  H   UNL     1      -3.652   8.090 -14.127  1.00  0.00    +0.211 HD
ENDBRANCH   7  34
ENDBRANCH   1   2
BRANCH   1  36
ATOM     36  C   UNL     1      -2.564   3.886 -16.607  1.00  0.00    +0.179 C 
ATOM     37  C   UNL     1      -1.328   3.858 -17.506  1.00  0.00    +0.198 C 
ATOM     38  C   UNL     1      -3.810   3.502 -17.433  1.00  0.00    +0.179 C 
ATOM     39  O   UNL     1      -1.050   2.550 -18.021  1.00  0.00    -0.347 OA
ATOM     40  C   UNL     1      -3.459   2.597 -18.626  1.00  0.00    +0.202 C 
ATOM     41  C   UNL     1      -2.210   1.752 -18.296  1.00  0.00    +0.282 C 
BRANCH  38  42
ATOM     42  O   UNL     1      -4.487   4.671 -17.939  1.00  0.00    -0.387 OA
ATOM     43  H   UNL     1      -3.949   5.438 -17.642  1.00  0.00    +0.211 HD
ENDBRANCH  38  42
BRANCH  40  44
ATOM     44  O   UNL     1      -3.226   3.422 -19.788  1.00  0.00    -0.385 OA
ATOM     45  H   UNL     1      -3.748   2.996 -20.500  1.00  0.00    +0.211 HD
ENDBRANCH  40  44
BRANCH  41  46
ATOM     46  O   UNL     1      -1.944   0.870 -19.386  1.00  0.00    -0.341 OA
BRANCH  46  47
ATOM     47  C   UNL     1      -1.635  -0.478 -18.995  1.00  0.00    +0.178 C 
BRANCH  47  48
ATOM     48  C   UNL     1      -2.301  -1.430 -19.995  1.00  0.00    +0.191 C 
BRANCH  48  49
ATOM     49  O   UNL     1      -2.391  -2.746 -19.464  1.00  0.00    -0.394 OA
ATOM     50  H   UNL     1      -2.732  -2.657 -18.555  1.00  0.00    +0.210 HD
ENDBRANCH  48  49
ENDBRANCH  47  48
BRANCH  47  51
ATOM     51  C   UNL     1      -0.097  -0.654 -18.885  1.00  0.00    +0.181 C 
BRANCH  51  52
ATOM     52  C   UNL     1       0.715   0.119 -19.938  1.00  0.00    +0.209 C 
BRANCH  52  53
ATOM     53  C   UNL     1       1.768   0.970 -19.241  1.00  0.00    +0.258 C 
ATOM     54  O   UNL     1       2.213   2.007 -19.737  1.00  0.00    -0.300 OA
ENDBRANCH  52  53
BRANCH  52  55
ATOM     55  O   UNL     1       1.376  -0.752 -20.856  1.00  0.00    -0.383 OA
ATOM     56  H   UNL     1       2.314  -0.777 -20.574  1.00  0.00    +0.211 HD
ENDBRANCH  52  55
ENDBRANCH  51  52
BRANCH  51  57
ATOM     57  O   UNL     1       0.334  -0.217 -17.577  1.00  0.00    -0.387 OA
ATOM     58  H   UNL     1       0.939  -0.910 -17.229  1.00  0.00    +0.211 HD
ENDBRANCH  51  57
ENDBRANCH  47  51
ENDBRANCH  46  47
ENDBRANCH  41  46
ENDBRANCH   1  36
TORSDOF 24
ENDMDL
MODEL 6
REMARK VINA RESULT:    -6.887      8.669     14.148
REMARK INTER + INTRA:         -16.225
REMARK INTER:                 -13.612
REMARK INTRA:                  -2.613
REMARK UNBOUND:                -2.091
REMARK SMILES O=C[C@@H](O)[C@@H](O)[C@H](CO)O[C@H]1OC[C@@H](O[C@@H]2OC[C@H](O[C@H]3OC[C@H](O[C@H]4OC[C@H](O)[C@H](O)[C@@H]4O)[C@@H](O)[C@H]3O)[C@H](O)[C@@H]2O)[C@@H](O)[C@H]1O
REMARK SMILES IDX 15 1 16 2 19 3 18 4 39 5 17 6 41 7 20 8 21 9 24 10 23 11
REMARK SMILES IDX 35 12 22 13 37 14 25 15 26 16 28 17 29 18 27 19 31 20 33 21
REMARK SMILES IDX 30 22 32 24 34 26 36 28 38 30 40 32 42 34 14 36 13 37 43 38
REMARK SMILES IDX 12 39 45 40 11 41 44 42 46 44 10 46 7 47 8 48 9 49 5 51 3 52
REMARK SMILES IDX 2 53 1 54 4 55 6 57
REMARK H PARENT 30 23 32 25 34 27 36 29 38 31 40 33 42 35 44 43 46 45 9 50
REMARK H PARENT 4 56 6 58
ROOT
ATOM      1  O   UNL     1      -6.477   8.140 -12.545  1.00  0.00    -0.341 OA
ENDROOT
BRANCH   1   2
ATOM      2  C   UNL     1      -7.825   8.611 -12.635  1.00  0.00    +0.282 C 
ATOM      3  C   UNL     1     -10.515   7.454 -12.163  1.00  0.00    +0.179 C 
ATOM      4  C   UNL     1      -9.334   7.455 -11.179  1.00  0.00    +0.198 C 
ATOM      5  C   UNL     1     -10.078   8.012 -13.539  1.00  0.00    +0.179 C 
ATOM      6  O   UNL     1      -8.496   8.592 -11.369  1.00  0.00    -0.347 OA
ATOM      7  C   UNL     1      -8.573   7.842 -13.754  1.00  0.00    +0.202 C 
BRANCH   3   8
ATOM      8  O   UNL     1     -11.056   6.138 -12.367  1.00  0.00    -0.341 OA
BRANCH   8   9
ATOM      9  C   UNL     1     -10.908   5.257 -11.247  1.00  0.00    +0.282 C 
ATOM     10  C   UNL     1     -12.284   3.394 -12.770  1.00  0.00    +0.179 C 
ATOM     11  C   UNL     1     -12.718   3.662 -11.324  1.00  0.00    +0.198 C 
ATOM     12  C   UNL     1     -10.746   3.317 -12.853  1.00  0.00    +0.179 C 
ATOM     13  O   UNL     1     -12.187   4.861 -10.752  1.00  0.00    -0.347 OA
ATOM     14  C   UNL     1     -10.068   4.034 -11.672  1.00  0.00    +0.202 C 
BRANCH  10  15
ATOM     15  O   UNL     1     -12.935   2.190 -13.201  1.00  0.00    -0.341 OA
BRANCH  15  16
ATOM     16  C   UNL     1     -13.554   1.456 -12.137  1.00  0.00    +0.282 C 
ATOM     17  C   UNL     1     -15.376  -0.011 -11.741  1.00  0.00    +0.198 C 
ATOM     18  C   UNL     1     -14.528  -1.286 -11.701  1.00  0.00    +0.171 C 
ATOM     19  O   UNL     1     -14.805   0.950 -12.624  1.00  0.00    -0.347 OA
ATOM     20  C   UNL     1     -13.109  -1.033 -12.241  1.00  0.00    +0.179 C 
ATOM     21  C   UNL     1     -12.588   0.312 -11.730  1.00  0.00    +0.202 C 
BRANCH  18  22
ATOM     22  O   UNL     1     -14.440  -1.783 -10.355  1.00  0.00    -0.388 OA
ATOM     23  H   UNL     1     -13.805  -1.200  -9.887  1.00  0.00    +0.211 HD
ENDBRANCH  18  22
BRANCH  20  24
ATOM     24  O   UNL     1     -12.223  -2.078 -11.801  1.00  0.00    -0.387 OA
ATOM     25  H   UNL     1     -12.798  -2.832 -11.550  1.00  0.00    +0.211 HD
ENDBRANCH  20  24
BRANCH  21  26
ATOM     26  O   UNL     1     -12.487   0.219 -10.289  1.00  0.00    -0.385 OA
ATOM     27  H   UNL     1     -13.394   0.409  -9.973  1.00  0.00    +0.211 HD
ENDBRANCH  21  26
ENDBRANCH  15  16
ENDBRANCH  10  15
BRANCH  12  28
ATOM     28  O   UNL     1     -10.314   3.904 -14.100  1.00  0.00    -0.387 OA
ATOM     29  H   UNL     1     -10.386   3.194 -14.771  1.00  0.00    +0.211 HD
ENDBRANCH  12  28
BRANCH  14  30
ATOM     30  O   UNL     1      -8.728   4.395 -12.037  1.00  0.00    -0.385 OA
ATOM     31  H   UNL     1      -8.787   4.992 -12.806  1.00  0.00    +0.211 HD
ENDBRANCH  14  30
ENDBRANCH   8   9
ENDBRANCH   3   8
BRANCH   5  32
ATOM     32  O   UNL     1     -10.792   7.367 -14.604  1.00  0.00    -0.387 OA
ATOM     33  H   UNL     1     -10.305   6.534 -14.784  1.00  0.00    +0.211 HD
ENDBRANCH   5  32
BRANCH   7  34
ATOM     34  O   UNL     1      -8.256   6.436 -13.738  1.00  0.00    -0.385 OA
ATOM     35  H   UNL     1      -8.492   6.125 -12.842  1.00  0.00    +0.211 HD
ENDBRANCH   7  34
ENDBRANCH   1   2
BRANCH   1  36
ATOM     36  C   UNL     1      -6.079   7.791 -11.218  1.00  0.00    +0.179 C 
ATOM     37  C   UNL     1      -4.703   8.378 -10.904  1.00  0.00    +0.198 C 
ATOM     38  C   UNL     1      -6.028   6.255 -11.079  1.00  0.00    +0.179 C 
ATOM     39  O   UNL     1      -4.296   8.135  -9.552  1.00  0.00    -0.347 OA
ATOM     40  C   UNL     1      -4.948   5.798 -10.084  1.00  0.00    +0.202 C 
ATOM     41  C   UNL     1      -4.732   6.882  -9.006  1.00  0.00    +0.282 C 
BRANCH  38  42
ATOM     42  O   UNL     1      -5.769   5.620 -12.348  1.00  0.00    -0.387 OA
ATOM     43  H   UNL     1      -5.380   6.319 -12.919  1.00  0.00    +0.211 HD
ENDBRANCH  38  42
BRANCH  40  44
ATOM     44  O   UNL     1      -3.724   5.544 -10.806  1.00  0.00    -0.385 OA
ATOM     45  H   UNL     1      -3.722   6.208 -11.527  1.00  0.00    +0.211 HD
ENDBRANCH  40  44
BRANCH  41  46
ATOM     46  O   UNL     1      -3.779   6.409  -8.055  1.00  0.00    -0.341 OA
BRANCH  46  47
ATOM     47  C   UNL     1      -4.260   6.374  -6.701  1.00  0.00    +0.178 C 
BRANCH  47  48
ATOM     48  C   UNL     1      -5.274   5.231  -6.584  1.00  0.00    +0.191 C 
BRANCH  48  49
ATOM     49  O   UNL     1      -4.892   4.313  -5.568  1.00  0.00    -0.394 OA
ATOM     50  H   UNL     1      -5.391   3.493  -5.732  1.00  0.00    +0.210 HD
ENDBRANCH  48  49
ENDBRANCH  47  48
BRANCH  47  51
ATOM     51  C   UNL     1      -3.062   6.259  -5.721  1.00  0.00    +0.181 C 
BRANCH  51  52
ATOM     52  C   UNL     1      -1.803   5.611  -6.320  1.00  0.00    +0.209 C 
BRANCH  52  53
ATOM     53  C   UNL     1      -0.685   5.624  -5.284  1.00  0.00    +0.258 C 
ATOM     54  O   UNL     1      -0.149   4.592  -4.879  1.00  0.00    -0.300 OA
ENDBRANCH  52  53
BRANCH  52  55
ATOM     55  O   UNL     1      -2.030   4.258  -6.718  1.00  0.00    -0.383 OA
ATOM     56  H   UNL     1      -1.191   3.953  -7.121  1.00  0.00    +0.211 HD
ENDBRANCH  52  55
ENDBRANCH  51  52
BRANCH  51  57
ATOM     57  O   UNL     1      -2.709   7.580  -5.253  1.00  0.00    -0.387 OA
ATOM     58  H   UNL     1      -3.445   8.180  -5.508  1.00  0.00    +0.211 HD
ENDBRANCH  51  57
ENDBRANCH  47  51
ENDBRANCH  46  47
ENDBRANCH  41  46
ENDBRANCH   1  36
TORSDOF 24
ENDMDL
MODEL 7
REMARK VINA RESULT:    -6.832     10.781     16.466
REMARK INTER + INTRA:         -16.113
REMARK INTER:                 -12.783
REMARK INTRA:                  -3.330
REMARK UNBOUND:                -2.091
REMARK SMILES O=C[C@@H](O)[C@@H](O)[C@H](CO)O[C@H]1OC[C@@H](O[C@@H]2OC[C@H](O[C@H]3OC[C@H](O[C@H]4OC[C@H](O)[C@H](O)[C@@H]4O)[C@@H](O)[C@H]3O)[C@H](O)[C@@H]2O)[C@@H](O)[C@H]1O
REMARK SMILES IDX 15 1 16 2 19 3 18 4 39 5 17 6 41 7 20 8 21 9 24 10 23 11
REMARK SMILES IDX 35 12 22 13 37 14 25 15 26 16 28 17 29 18 27 19 31 20 33 21
REMARK SMILES IDX 30 22 32 24 34 26 36 28 38 30 40 32 42 34 14 36 13 37 43 38
REMARK SMILES IDX 12 39 45 40 11 41 44 42 46 44 10 46 7 47 8 48 9 49 5 51 3 52
REMARK SMILES IDX 2 53 1 54 4 55 6 57
REMARK H PARENT 30 23 32 25 34 27 36 29 38 31 40 33 42 35 44 43 46 45 9 50
REMARK H PARENT 4 56 6 58
ROOT
ATOM      1  O   UNL     1     -11.938   6.503 -10.736  1.00  0.00    -0.341 OA
ENDROOT
BRANCH   1   2
ATOM      2  C   UNL     1     -11.938   5.292  -9.976  1.00  0.00    +0.282 C 
ATOM      3  C   UNL     1     -13.741   4.034  -7.986  1.00  0.00    +0.179 C 
ATOM      4  C   UNL     1     -14.134   4.544  -9.381  1.00  0.00    +0.198 C 
ATOM      5  C   UNL     1     -12.273   4.402  -7.664  1.00  0.00    +0.179 C 
ATOM      6  O   UNL     1     -13.048   4.444 -10.299  1.00  0.00    -0.347 OA
ATOM      7  C   UNL     1     -11.818   5.622  -8.466  1.00  0.00    +0.202 C 
BRANCH   3   8
ATOM      8  O   UNL     1     -14.576   4.578  -6.949  1.00  0.00    -0.341 OA
BRANCH   8   9
ATOM      9  C   UNL     1     -15.741   3.799  -6.656  1.00  0.00    +0.282 C 
ATOM     10  C   UNL     1     -14.132   2.402  -4.883  1.00  0.00    +0.179 C 
ATOM     11  C   UNL     1     -15.002   1.634  -5.886  1.00  0.00    +0.198 C 
ATOM     12  C   UNL     1     -14.935   3.570  -4.276  1.00  0.00    +0.179 C 
ATOM     13  O   UNL     1     -15.511   2.424  -6.965  1.00  0.00    -0.347 OA
ATOM     14  C   UNL     1     -16.116   3.985  -5.171  1.00  0.00    +0.202 C 
BRANCH  10  15
ATOM     15  O   UNL     1     -13.671   1.461  -3.902  1.00  0.00    -0.341 OA
BRANCH  15  16
ATOM     16  C   UNL     1     -12.254   1.251  -3.926  1.00  0.00    +0.282 C 
ATOM     17  C   UNL     1     -10.220   2.453  -3.717  1.00  0.00    +0.198 C 
ATOM     18  C   UNL     1      -9.940   2.014  -2.275  1.00  0.00    +0.171 C 
ATOM     19  O   UNL     1     -11.621   2.537  -3.958  1.00  0.00    -0.347 OA
ATOM     20  C   UNL     1     -11.182   1.367  -1.637  1.00  0.00    +0.179 C 
ATOM     21  C   UNL     1     -11.874   0.453  -2.651  1.00  0.00    +0.202 C 
BRANCH  18  22
ATOM     22  O   UNL     1      -8.849   1.080  -2.243  1.00  0.00    -0.388 OA
ATOM     23  H   UNL     1      -9.249   0.187  -2.317  1.00  0.00    +0.211 HD
ENDBRANCH  18  22
BRANCH  20  24
ATOM     24  O   UNL     1     -10.793   0.587  -0.491  1.00  0.00    -0.387 OA
ATOM     25  H   UNL     1     -11.627   0.311  -0.056  1.00  0.00    +0.211 HD
ENDBRANCH  20  24
BRANCH  21  26
ATOM     26  O   UNL     1     -10.952  -0.615  -2.973  1.00  0.00    -0.385 OA
ATOM     27  H   UNL     1     -10.201  -0.160  -3.407  1.00  0.00    +0.211 HD
ENDBRANCH  21  26
ENDBRANCH  15  16
ENDBRANCH  10  15
BRANCH  12  28
ATOM     28  O   UNL     1     -14.049   4.692  -4.076  1.00  0.00    -0.387 OA
ATOM     29  H   UNL     1     -13.209   4.454  -4.519  1.00  0.00    +0.211 HD
ENDBRANCH  12  28
BRANCH  14  30
ATOM     30  O   UNL     1     -16.491   5.337  -4.871  1.00  0.00    -0.385 OA
ATOM     31  H   UNL     1     -17.451   5.341  -4.697  1.00  0.00    +0.211 HD
ENDBRANCH  14  30
ENDBRANCH   8   9
ENDBRANCH   3   8
BRANCH   5  32
ATOM     32  O   UNL     1     -12.104   4.659  -6.262  1.00  0.00    -0.387 OA
ATOM     33  H   UNL     1     -11.406   5.346  -6.200  1.00  0.00    +0.211 HD
ENDBRANCH   5  32
BRANCH   7  34
ATOM     34  O   UNL     1     -12.637   6.752  -8.102  1.00  0.00    -0.385 OA
ATOM     35  H   UNL     1     -12.073   7.310  -7.533  1.00  0.00    +0.211 HD
ENDBRANCH   7  34
ENDBRANCH   1   2
BRANCH   1  36
ATOM     36  C   UNL     1     -10.890   6.574 -11.705  1.00  0.00    +0.179 C 
ATOM     37  C   UNL     1      -9.819   5.525 -11.406  1.00  0.00    +0.198 C 
ATOM     38  C   UNL     1     -10.255   7.980 -11.681  1.00  0.00    +0.179 C 
ATOM     39  O   UNL     1      -8.789   5.490 -12.401  1.00  0.00    -0.347 OA
ATOM     40  C   UNL     1      -8.759   7.947 -12.036  1.00  0.00    +0.202 C 
ATOM     41  C   UNL     1      -8.468   6.763 -12.982  1.00  0.00    +0.282 C 
BRANCH  38  42
ATOM     42  O   UNL     1     -10.397   8.599 -10.386  1.00  0.00    -0.387 OA
ATOM     43  H   UNL     1     -11.287   8.337 -10.063  1.00  0.00    +0.211 HD
ENDBRANCH  38  42
BRANCH  40  44
ATOM     44  O   UNL     1      -7.991   7.831 -10.818  1.00  0.00    -0.385 OA
ATOM     45  H   UNL     1      -7.153   7.406 -11.097  1.00  0.00    +0.211 HD
ENDBRANCH  40  44
BRANCH  41  46
ATOM     46  O   UNL     1      -7.090   6.792 -13.354  1.00  0.00    -0.341 OA
BRANCH  46  47
ATOM     47  C   UNL     1      -6.473   5.497 -13.443  1.00  0.00    +0.178 C 
BRANCH  47  48
ATOM     48  C   UNL     1      -6.538   5.036 -14.903  1.00  0.00    +0.191 C 
BRANCH  48  49
ATOM     49  O   UNL     1      -7.732   4.305 -15.154  1.00  0.00    -0.394 OA
ATOM     50  H   UNL     1      -8.243   4.821 -15.803  1.00  0.00    +0.210 HD
ENDBRANCH  48  49
ENDBRANCH  47  48
BRANCH  47  51
ATOM     51  C   UNL     1      -5.034   5.560 -12.864  1.00  0.00    +0.181 C 
BRANCH  51  52
ATOM     52  C   UNL     1      -4.963   5.689 -11.333  1.00  0.00    +0.209 C 
BRANCH  52  53
ATOM     53  C   UNL     1      -4.258   6.989 -10.967  1.00  0.00    +0.258 C 
ATOM     54  O   UNL     1      -4.050   7.320  -9.799  1.00  0.00    -0.300 OA
ENDBRANCH  52  53
BRANCH  52  55
ATOM     55  O   UNL     1      -6.259   5.696 -10.733  1.00  0.00    -0.383 OA
ATOM     56  H   UNL     1      -6.170   6.218  -9.909  1.00  0.00    +0.211 HD
ENDBRANCH  52  55
ENDBRANCH  51  52
BRANCH  51  57
ATOM     57  O   UNL     1      -4.321   4.363 -13.248  1.00  0.00    -0.387 OA
ATOM     58  H   UNL     1      -3.494   4.340 -12.716  1.00  0.00    +0.211 HD
ENDBRANCH  51  57
ENDBRANCH  47  51
ENDBRANCH  46  47
ENDBRANCH  41  46
ENDBRANCH   1  36
TORSDOF 24
ENDMDL
MODEL 8
REMARK VINA RESULT:    -6.797      8.825     14.163
REMARK INTER + INTRA:         -16.041
REMARK INTER:                 -12.996
REMARK INTRA:                  -3.045
REMARK UNBOUND:                -2.091
REMARK SMILES O=C[C@@H](O)[C@@H](O)[C@H](CO)O[C@H]1OC[C@@H](O[C@@H]2OC[C@H](O[C@H]3OC[C@H](O[C@H]4OC[C@H](O)[C@H](O)[C@@H]4O)[C@@H](O)[C@H]3O)[C@H](O)[C@@H]2O)[C@@H](O)[C@H]1O
REMARK SMILES IDX 15 1 16 2 19 3 18 4 39 5 17 6 41 7 20 8 21 9 24 10 23 11
REMARK SMILES IDX 35 12 22 13 37 14 25 15 26 16 28 17 29 18 27 19 31 20 33 21
REMARK SMILES IDX 30 22 32 24 34 26 36 28 38 30 40 32 42 34 14 36 13 37 43 38
REMARK SMILES IDX 12 39 45 40 11 41 44 42 46 44 10 46 7 47 8 48 9 49 5 51 3 52
REMARK SMILES IDX 2 53 1 54 4 55 6 57
REMARK H PARENT 30 23 32 25 34 27 36 29 38 31 40 33 42 35 44 43 46 45 9 50
REMARK H PARENT 4 56 6 58
ROOT
ATOM      1  O   UNL     1      -5.878   8.600 -11.504  1.00  0.00    -0.341 OA
ENDROOT
BRANCH   1   2
ATOM      2  C   UNL     1      -7.212   8.977 -11.856  1.00  0.00    +0.282 C 
ATOM      3  C   UNL     1      -9.501   7.668 -13.213  1.00  0.00    +0.179 C 
ATOM      4  C   UNL     1      -8.714   7.120 -12.012  1.00  0.00    +0.198 C 
ATOM      5  C   UNL     1      -8.842   8.961 -13.751  1.00  0.00    +0.179 C 
ATOM      6  O   UNL     1      -8.199   8.171 -11.200  1.00  0.00    -0.347 OA
ATOM      7  C   UNL     1      -7.355   9.013 -13.399  1.00  0.00    +0.202 C 
BRANCH   3   8
ATOM      8  O   UNL     1      -9.580   6.724 -14.293  1.00  0.00    -0.341 OA
BRANCH   8   9
ATOM      9  C   UNL     1      -9.566   5.351 -13.883  1.00  0.00    +0.282 C 
ATOM     10  C   UNL     1      -9.734   4.738 -16.581  1.00  0.00    +0.179 C 
ATOM     11  C   UNL     1     -10.689   4.064 -15.588  1.00  0.00    +0.198 C 
ATOM     12  C   UNL     1      -8.308   4.779 -15.995  1.00  0.00    +0.179 C 
ATOM     13  O   UNL     1     -10.761   4.693 -14.306  1.00  0.00    -0.347 OA
ATOM     14  C   UNL     1      -8.312   4.661 -14.460  1.00  0.00    +0.202 C 
BRANCH  10  15
ATOM     15  O   UNL     1      -9.817   4.015 -17.819  1.00  0.00    -0.341 OA
BRANCH  15  16
ATOM     16  C   UNL     1      -9.025   2.821 -17.843  1.00  0.00    +0.282 C 
ATOM     17  C   UNL     1      -9.217   0.505 -18.318  1.00  0.00    +0.198 C 
ATOM     18  C   UNL     1      -8.563   0.587 -19.702  1.00  0.00    +0.171 C 
ATOM     19  O   UNL     1      -9.915   1.709 -18.015  1.00  0.00    -0.347 OA
ATOM     20  C   UNL     1      -8.449   2.044 -20.182  1.00  0.00    +0.179 C 
ATOM     21  C   UNL     1      -8.022   2.945 -19.020  1.00  0.00    +0.202 C 
BRANCH  18  22
ATOM     22  O   UNL     1      -7.254  -0.005 -19.669  1.00  0.00    -0.388 OA
ATOM     23  H   UNL     1      -7.259  -0.721 -20.340  1.00  0.00    +0.211 HD
ENDBRANCH  18  22
BRANCH  20  24
ATOM     24  O   UNL     1      -7.471   2.139 -21.234  1.00  0.00    -0.387 OA
ATOM     25  H   UNL     1      -6.854   2.852 -20.966  1.00  0.00    +0.211 HD
ENDBRANCH  20  24
BRANCH  21  26
ATOM     26  O   UNL     1      -6.699   2.524 -18.609  1.00  0.00    -0.385 OA
ATOM     27  H   UNL     1      -6.097   3.146 -19.068  1.00  0.00    +0.211 HD
ENDBRANCH  21  26
ENDBRANCH  15  16
ENDBRANCH  10  15
BRANCH  12  28
ATOM     28  O   UNL     1      -7.674   6.013 -16.393  1.00  0.00    -0.387 OA
ATOM     29  H   UNL     1      -7.990   6.197 -17.302  1.00  0.00    +0.211 HD
ENDBRANCH  12  28
BRANCH  14  30
ATOM     30  O   UNL     1      -7.097   5.216 -13.935  1.00  0.00    -0.385 OA
ATOM     31  H   UNL     1      -6.417   4.518 -13.976  1.00  0.00    +0.211 HD
ENDBRANCH  14  30
ENDBRANCH   8   9
ENDBRANCH   3   8
BRANCH   5  32
ATOM     32  O   UNL     1      -9.003   9.064 -15.174  1.00  0.00    -0.387 OA
ATOM     33  H   UNL     1      -9.455   8.237 -15.451  1.00  0.00    +0.211 HD
ENDBRANCH   5  32
BRANCH   7  34
ATOM     34  O   UNL     1      -6.689   7.897 -14.022  1.00  0.00    -0.385 OA
ATOM     35  H   UNL     1      -6.131   7.503 -13.324  1.00  0.00    +0.211 HD
ENDBRANCH   7  34
ENDBRANCH   1   2
BRANCH   1  36
ATOM     36  C   UNL     1      -5.811   7.687 -10.407  1.00  0.00    +0.179 C 
ATOM     37  C   UNL     1      -4.688   8.087  -9.450  1.00  0.00    +0.198 C 
ATOM     38  C   UNL     1      -5.552   6.260 -10.935  1.00  0.00    +0.179 C 
ATOM     39  O   UNL     1      -4.636   7.258  -8.283  1.00  0.00    -0.347 OA
ATOM     40  C   UNL     1      -4.729   5.416  -9.947  1.00  0.00    +0.202 C 
ATOM     41  C   UNL     1      -4.997   5.886  -8.502  1.00  0.00    +0.282 C 
BRANCH  38  42
ATOM     42  O   UNL     1      -4.854   6.284 -12.197  1.00  0.00    -0.387 OA
ATOM     43  H   UNL     1      -5.531   6.515 -12.870  1.00  0.00    +0.211 HD
ENDBRANCH  38  42
BRANCH  40  44
ATOM     44  O   UNL     1      -3.329   5.544 -10.275  1.00  0.00    -0.385 OA
ATOM     45  H   UNL     1      -3.322   5.976 -11.156  1.00  0.00    +0.211 HD
ENDBRANCH  40  44
BRANCH  41  46
ATOM     46  O   UNL     1      -4.280   5.046  -7.598  1.00  0.00    -0.341 OA
BRANCH  46  47
ATOM     47  C   UNL     1      -3.910   5.684  -6.364  1.00  0.00    +0.178 C 
BRANCH  47  48
ATOM     48  C   UNL     1      -4.997   5.383  -5.326  1.00  0.00    +0.191 C 
BRANCH  48  49
ATOM     49  O   UNL     1      -5.079   6.421  -4.359  1.00  0.00    -0.394 OA
ATOM     50  H   UNL     1      -6.027   6.595  -4.216  1.00  0.00    +0.210 HD
ENDBRANCH  48  49
ENDBRANCH  47  48
BRANCH  47  51
ATOM     51  C   UNL     1      -2.489   5.225  -5.941  1.00  0.00    +0.181 C 
BRANCH  51  52
ATOM     52  C   UNL     1      -1.380   5.551  -6.956  1.00  0.00    +0.209 C 
BRANCH  52  53
ATOM     53  C   UNL     1      -0.156   6.076  -6.217  1.00  0.00    +0.258 C 
ATOM     54  O   UNL     1      -0.044   7.257  -5.882  1.00  0.00    -0.300 OA
ENDBRANCH  52  53
BRANCH  52  55
ATOM     55  O   UNL     1      -0.991   4.406  -7.715  1.00  0.00    -0.383 OA
ATOM     56  H   UNL     1      -0.179   4.667  -8.196  1.00  0.00    +0.211 HD
ENDBRANCH  52  55
ENDBRANCH  51  52
BRANCH  51  57
ATOM     57  O   UNL     1      -2.147   5.853  -4.685  1.00  0.00    -0.387 OA
ATOM     58  H   UNL     1      -1.201   6.115  -4.745  1.00  0.00    +0.211 HD
ENDBRANCH  51  57
ENDBRANCH  47  51
ENDBRANCH  46  47
ENDBRANCH  41  46
ENDBRANCH   1  36
TORSDOF 24
ENDMDL
MODEL 9
REMARK VINA RESULT:    -6.765     10.288     16.989
REMARK INTER + INTRA:         -15.975
REMARK INTER:                 -13.411
REMARK INTRA:                  -2.564
REMARK UNBOUND:                -2.091
REMARK SMILES O=C[C@@H](O)[C@@H](O)[C@H](CO)O[C@H]1OC[C@@H](O[C@@H]2OC[C@H](O[C@H]3OC[C@H](O[C@H]4OC[C@H](O)[C@H](O)[C@@H]4O)[C@@H](O)[C@H]3O)[C@H](O)[C@@H]2O)[C@@H](O)[C@H]1O
REMARK SMILES IDX 15 1 16 2 19 3 18 4 39 5 17 6 41 7 20 8 21 9 24 10 23 11
REMARK SMILES IDX 35 12 22 13 37 14 25 15 26 16 28 17 29 18 27 19 31 20 33 21
REMARK SMILES IDX 30 22 32 24 34 26 36 28 38 30 40 32 42 34 14 36 13 37 43 38
REMARK SMILES IDX 12 39 45 40 11 41 44 42 46 44 10 46 7 47 8 48 9 49 5 51 3 52
REMARK SMILES IDX 2 53 1 54 4 55 6 57
REMARK H PARENT 30 23 32 25 34 27 36 29 38 31 40 33 42 35 44 43 46 45 9 50
REMARK H PARENT 4 56 6 58
ROOT
ATOM      1  O   UNL     1      -4.444   3.720 -18.510  1.00  0.00    -0.341 OA
ENDROOT
BRANCH   1   2
ATOM      2  C   UNL     1      -4.607   3.719 -17.089  1.00  0.00    +0.282 C 
ATOM      3  C   UNL     1      -6.044   5.404 -15.117  1.00  0.00    +0.179 C 
ATOM      4  C   UNL     1      -6.646   4.746 -16.368  1.00  0.00    +0.198 C 
ATOM      5  C   UNL     1      -4.509   5.207 -15.082  1.00  0.00    +0.179 C 
ATOM      6  O   UNL     1      -5.973   3.534 -16.697  1.00  0.00    -0.347 OA
ATOM      7  C   UNL     1      -3.947   4.986 -16.487  1.00  0.00    +0.202 C 
BRANCH   3   8
ATOM      8  O   UNL     1      -6.314   6.815 -15.057  1.00  0.00    -0.341 OA
BRANCH   8   9
ATOM      9  C   UNL     1      -7.679   7.146 -14.777  1.00  0.00    +0.282 C 
ATOM     10  C   UNL     1      -6.789   7.886 -12.259  1.00  0.00    +0.179 C 
ATOM     11  C   UNL     1      -8.005   6.962 -12.393  1.00  0.00    +0.198 C 
ATOM     12  C   UNL     1      -6.874   9.024 -13.296  1.00  0.00    +0.179 C 
ATOM     13  O   UNL     1      -8.166   6.367 -13.684  1.00  0.00    -0.347 OA
ATOM     14  C   UNL     1      -7.785   8.657 -14.481  1.00  0.00    +0.202 C 
BRANCH  10  15
ATOM     15  O   UNL     1      -6.750   8.357 -10.903  1.00  0.00    -0.341 OA
BRANCH  15  16
ATOM     16  C   UNL     1      -5.525   8.058 -10.223  1.00  0.00    +0.282 C 
ATOM     17  C   UNL     1      -4.699   6.747  -8.428  1.00  0.00    +0.198 C 
ATOM     18  C   UNL     1      -4.105   5.646  -9.314  1.00  0.00    +0.171 C 
ATOM     19  O   UNL     1      -5.851   7.322  -9.037  1.00  0.00    -0.347 OA
ATOM     20  C   UNL     1      -4.611   5.761 -10.763  1.00  0.00    +0.179 C 
ATOM     21  C   UNL     1      -4.639   7.230 -11.192  1.00  0.00    +0.202 C 
BRANCH  18  22
ATOM     22  O   UNL     1      -2.670   5.721  -9.305  1.00  0.00    -0.388 OA
ATOM     23  H   UNL     1      -2.445   6.673  -9.226  1.00  0.00    +0.211 HD
ENDBRANCH  18  22
BRANCH  20  24
ATOM     24  O   UNL     1      -3.739   5.031 -11.645  1.00  0.00    -0.387 OA
ATOM     25  H   UNL     1      -4.325   4.513 -12.236  1.00  0.00    +0.211 HD
ENDBRANCH  20  24
BRANCH  21  26
ATOM     26  O   UNL     1      -3.275   7.713 -11.174  1.00  0.00    -0.385 OA
ATOM     27  H   UNL     1      -3.318   8.532 -10.638  1.00  0.00    +0.211 HD
ENDBRANCH  21  26
ENDBRANCH  15  16
ENDBRANCH  10  15
BRANCH  12  28
ATOM     28  O   UNL     1      -5.544   9.325 -13.771  1.00  0.00    -0.387 OA
ATOM     29  H   UNL     1      -4.931   8.986 -13.087  1.00  0.00    +0.211 HD
ENDBRANCH  12  28
BRANCH  14  30
ATOM     30  O   UNL     1      -7.436   9.459 -15.618  1.00  0.00    -0.385 OA
ATOM     31  H   UNL     1      -7.785   9.009 -16.410  1.00  0.00    +0.211 HD
ENDBRANCH  14  30
ENDBRANCH   8   9
ENDBRANCH   3   8
BRANCH   5  32
ATOM     32  O   UNL     1      -3.861   6.335 -14.476  1.00  0.00    -0.387 OA
ATOM     33  H   UNL     1      -3.197   5.959 -13.858  1.00  0.00    +0.211 HD
ENDBRANCH   5  32
BRANCH   7  34
ATOM     34  O   UNL     1      -4.214   6.157 -17.285  1.00  0.00    -0.385 OA
ATOM     35  H   UNL     1      -4.606   5.823 -18.115  1.00  0.00    +0.211 HD
ENDBRANCH   7  34
ENDBRANCH   1   2
BRANCH   1  36
ATOM     36  C   UNL     1      -3.488   2.767 -18.979  1.00  0.00    +0.179 C 
ATOM     37  C   UNL     1      -2.834   2.046 -17.800  1.00  0.00    +0.198 C 
ATOM     38  C   UNL     1      -2.403   3.485 -19.808  1.00  0.00    +0.179 C 
ATOM     39  O   UNL     1      -1.933   1.013 -18.216  1.00  0.00    -0.347 OA
ATOM     40  C   UNL     1      -1.031   2.798 -19.689  1.00  0.00    +0.202 C 
ATOM     41  C   UNL     1      -1.220   1.288 -19.431  1.00  0.00    +0.282 C 
BRANCH  38  42
ATOM     42  O   UNL     1      -2.254   4.861 -19.400  1.00  0.00    -0.387 OA
ATOM     43  H   UNL     1      -3.165   5.188 -19.236  1.00  0.00    +0.211 HD
ENDBRANCH  38  42
BRANCH  40  44
ATOM     44  O   UNL     1      -0.291   3.414 -18.613  1.00  0.00    -0.385 OA
ATOM     45  H   UNL     1       0.218   4.131 -19.045  1.00  0.00    +0.211 HD
ENDBRANCH  40  44
BRANCH  41  46
ATOM     46  O   UNL     1       0.061   0.659 -19.394  1.00  0.00    -0.341 OA
BRANCH  46  47
ATOM     47  C   UNL     1       0.107  -0.627 -20.034  1.00  0.00    +0.178 C 
BRANCH  47  48
ATOM     48  C   UNL     1       1.150  -1.485 -19.308  1.00  0.00    +0.191 C 
BRANCH  48  49
ATOM     49  O   UNL     1       1.022  -1.357 -17.898  1.00  0.00    -0.394 OA
ATOM     50  H   UNL     1       1.456  -0.520 -17.653  1.00  0.00    +0.210 HD
ENDBRANCH  48  49
ENDBRANCH  47  48
BRANCH  47  51
ATOM     51  C   UNL     1      -1.314  -1.251 -20.063  1.00  0.00    +0.181 C 
BRANCH  51  52
ATOM     52  C   UNL     1      -1.503  -2.369 -21.102  1.00  0.00    +0.209 C 
BRANCH  52  53
ATOM     53  C   UNL     1      -2.991  -2.574 -21.359  1.00  0.00    +0.258 C 
ATOM     54  O   UNL     1      -3.747  -3.047 -20.509  1.00  0.00    -0.300 OA
ENDBRANCH  52  53
BRANCH  52  55
ATOM     55  O   UNL     1      -0.871  -2.062 -22.345  1.00  0.00    -0.383 OA
ATOM     56  H   UNL     1       0.038  -1.772 -22.119  1.00  0.00    +0.211 HD
ENDBRANCH  52  55
ENDBRANCH  51  52
BRANCH  51  57
ATOM     57  O   UNL     1      -1.615  -1.795 -18.758  1.00  0.00    -0.387 OA
ATOM     58  H   UNL     1      -2.414  -2.359 -18.861  1.00  0.00    +0.211 HD
ENDBRANCH  51  57
ENDBRANCH  47  51
ENDBRANCH  46  47
ENDBRANCH  41  46
ENDBRANCH   1  36
TORSDOF 24
ENDMDL
