MODEL 1
REMARK VINA RESULT:    -6.337      0.000      0.000
REMARK INTER + INTRA:         -10.548
REMARK INTER:                  -9.301
REMARK INTRA:                  -1.247
REMARK UNBOUND:                -1.247
REMARK SMILES O=S(=O)(O)OC[C@@H]1O[C@H](O[C@H]2[C@@H]3OC[C@H]2O[C@@H](O)[C@H]3O)[C@@H](O)[C@H](O)[C@@H]1O
REMARK SMILES IDX 9 1 21 2 23 3 25 4 7 5 8 6 10 7 11 8 14 9 15 10 13 11 16 12
REMARK SMILES IDX 12 13 17 14 19 15 18 16 20 18 22 20 24 22 6 24 5 25 2 26
REMARK SMILES IDX 1 27 3 28 4 29 26 31
REMARK H PARENT 18 17 20 19 22 21 24 23 4 30 26 32
ROOT
ATOM      1  C   UNL     1       8.662  -7.906  -6.192  1.00  0.00    +0.282 C 
ATOM      2  C   UNL     1       8.018  -8.290  -7.538  1.00  0.00    +0.202 C 
ATOM      3  C   UNL     1       6.524  -8.035  -7.439  1.00  0.00    +0.179 C 
ATOM      4  C   UNL     1       6.277  -6.535  -7.255  1.00  0.00    +0.177 C 
ATOM      5  C   UNL     1       7.346  -5.854  -6.367  1.00  0.00    +0.180 C 
ATOM      6  O   UNL     1       8.050  -6.797  -5.536  1.00  0.00    -0.341 OA
ENDROOT
BRANCH   1   7
ATOM      7  O   UNL     1      10.063  -7.725  -6.413  1.00  0.00    -0.341 OA
BRANCH   7   8
ATOM      8  C   UNL     1      10.868  -8.551  -5.579  1.00  0.00    +0.184 C 
ATOM      9  C   UNL     1      12.401  -8.883  -3.837  1.00  0.00    +0.195 C 
ATOM     10  C   UNL     1      11.318  -7.899  -4.281  1.00  0.00    +0.179 C 
ATOM     11  O   UNL     1      12.999  -9.391  -5.057  1.00  0.00    -0.370 OA
ATOM     12  O   UNL     1      11.820  -6.574  -4.532  1.00  0.00    -0.342 OA
ATOM     13  C   UNL     1      12.255  -8.805  -6.157  1.00  0.00    +0.184 C 
ATOM     14  C   UNL     1      12.936  -6.479  -5.411  1.00  0.00    +0.279 C 
ATOM     15  C   UNL     1      12.901  -7.481  -6.587  1.00  0.00    +0.202 C 
BRANCH  14  16
ATOM     16  O   UNL     1      14.131  -6.647  -4.652  1.00  0.00    -0.366 OA
ATOM     17  H   UNL     1      14.195  -5.838  -4.114  1.00  0.00    +0.213 HD
ENDBRANCH  14  16
BRANCH  15  18
ATOM     18  O   UNL     1      14.219  -7.712  -7.099  1.00  0.00    -0.385 OA
ATOM     19  H   UNL     1      14.128  -8.539  -7.621  1.00  0.00    +0.211 HD
ENDBRANCH  15  18
ENDBRANCH   7   8
ENDBRANCH   1   7
BRANCH   2  20
ATOM     20  O   UNL     1       8.241  -9.676  -7.850  1.00  0.00    -0.385 OA
ATOM     21  H   UNL     1       7.360 -10.100  -7.845  1.00  0.00    +0.211 HD
ENDBRANCH   2  20
BRANCH   3  22
ATOM     22  O   UNL     1       5.859  -8.481  -8.634  1.00  0.00    -0.387 OA
ATOM     23  H   UNL     1       6.245  -9.362  -8.821  1.00  0.00    +0.211 HD
ENDBRANCH   3  22
BRANCH   5  24
ATOM     24  C   UNL     1       8.310  -4.913  -7.111  1.00  0.00    +0.220 C 
BRANCH  24  25
ATOM     25  O   UNL     1       7.734  -3.610  -7.147  1.00  0.00    -0.245 OA
BRANCH  25  26
ATOM     26  S   UNL     1       7.911  -2.740  -8.506  1.00  0.00    +0.397 S 
ATOM     27  O   UNL     1       7.392  -3.479  -9.635  1.00  0.00    -0.169 OA
ATOM     28  O   UNL     1       9.236  -2.163  -8.507  1.00  0.00    -0.169 OA
BRANCH  26  29
ATOM     29  O   UNL     1       6.923  -1.498  -8.238  1.00  0.00    -0.264 OA
ATOM     30  H   UNL     1       6.027  -1.782  -8.513  1.00  0.00    +0.236 HD
ENDBRANCH  26  29
ENDBRANCH  25  26
ENDBRANCH  24  25
ENDBRANCH   5  24
BRANCH   4  31
ATOM     31  O   UNL     1       6.192  -5.912  -8.542  1.00  0.00    -0.387 OA
ATOM     32  H   UNL     1       5.679  -5.088  -8.388  1.00  0.00    +0.211 HD
ENDBRANCH   4  31
TORSDOF 11
ENDMDL
MODEL 2
REMARK VINA RESULT:    -6.294      2.403      6.658
REMARK INTER + INTRA:         -10.485
REMARK INTER:                  -9.392
REMARK INTRA:                  -1.092
REMARK UNBOUND:                -1.247
REMARK SMILES O=S(=O)(O)OC[C@@H]1O[C@H](O[C@H]2[C@@H]3OC[C@H]2O[C@@H](O)[C@H]3O)[C@@H](O)[C@H](O)[C@@H]1O
REMARK SMILES IDX 9 1 21 2 23 3 25 4 7 5 8 6 10 7 11 8 14 9 15 10 13 11 16 12
REMARK SMILES IDX 12 13 17 14 19 15 18 16 20 18 22 20 24 22 6 24 5 25 2 26
REMARK SMILES IDX 1 27 3 28 4 29 26 31
REMARK H PARENT 18 17 20 19 22 21 24 23 4 30 26 32
ROOT
ATOM      1  C   UNL     1       8.434  -8.947  -6.232  1.00  0.00    +0.282 C 
ATOM      2  C   UNL     1       8.315  -8.651  -4.724  1.00  0.00    +0.202 C 
ATOM      3  C   UNL     1       8.957  -9.799  -3.964  1.00  0.00    +0.179 C 
ATOM      4  C   UNL     1      10.454  -9.840  -4.280  1.00  0.00    +0.177 C 
ATOM      5  C   UNL     1      10.770  -9.474  -5.750  1.00  0.00    +0.180 C 
ATOM      6  O   UNL     1       9.627  -9.630  -6.611  1.00  0.00    -0.341 OA
ENDROOT
BRANCH   1   7
ATOM      7  O   UNL     1       8.243  -7.717  -6.936  1.00  0.00    -0.341 OA
BRANCH   7   8
ATOM      8  C   UNL     1       7.086  -7.726  -7.767  1.00  0.00    +0.184 C 
ATOM      9  C   UNL     1       5.790  -6.901  -9.537  1.00  0.00    +0.195 C 
ATOM     10  C   UNL     1       7.251  -7.002  -9.094  1.00  0.00    +0.179 C 
ATOM     11  O   UNL     1       5.015  -6.765  -8.318  1.00  0.00    -0.370 OA
ATOM     12  O   UNL     1       7.875  -5.721  -8.894  1.00  0.00    -0.342 OA
ATOM     13  C   UNL     1       5.955  -6.865  -7.216  1.00  0.00    +0.184 C 
ATOM     14  C   UNL     1       7.185  -4.808  -8.047  1.00  0.00    +0.279 C 
ATOM     15  C   UNL     1       6.482  -5.473  -6.842  1.00  0.00    +0.202 C 
BRANCH  14  16
ATOM     16  O   UNL     1       6.243  -4.081  -8.831  1.00  0.00    -0.366 OA
ATOM     17  H   UNL     1       5.932  -3.370  -8.243  1.00  0.00    +0.213 HD
ENDBRANCH  14  16
BRANCH  15  18
ATOM     18  O   UNL     1       5.414  -4.650  -6.357  1.00  0.00    -0.385 OA
ATOM     19  H   UNL     1       4.655  -4.882  -6.935  1.00  0.00    +0.211 HD
ENDBRANCH  15  18
ENDBRANCH   7   8
ENDBRANCH   1   7
BRANCH   2  20
ATOM     20  O   UNL     1       6.940  -8.527  -4.320  1.00  0.00    -0.385 OA
ATOM     21  H   UNL     1       6.944  -7.972  -3.516  1.00  0.00    +0.211 HD
ENDBRANCH   2  20
BRANCH   3  22
ATOM     22  O   UNL     1       8.776  -9.625  -2.548  1.00  0.00    -0.387 OA
ATOM     23  H   UNL     1       7.927 -10.072  -2.348  1.00  0.00    +0.211 HD
ENDBRANCH   3  22
BRANCH   5  24
ATOM     24  C   UNL     1      11.458  -8.111  -5.950  1.00  0.00    +0.220 C 
BRANCH  24  25
ATOM     25  O   UNL     1      12.854  -8.268  -5.707  1.00  0.00    -0.245 OA
BRANCH  25  26
ATOM     26  S   UNL     1      13.666  -6.995  -5.111  1.00  0.00    +0.397 S 
ATOM     27  O   UNL     1      14.626  -7.439  -4.126  1.00  0.00    -0.169 OA
ATOM     28  O   UNL     1      12.719  -5.938  -4.842  1.00  0.00    -0.169 OA
BRANCH  26  29
ATOM     29  O   UNL     1      14.487  -6.491  -6.401  1.00  0.00    -0.264 OA
ATOM     30  H   UNL     1      14.191  -7.035  -7.158  1.00  0.00    +0.236 HD
ENDBRANCH  26  29
ENDBRANCH  25  26
ENDBRANCH  24  25
ENDBRANCH   5  24
BRANCH   4  31
ATOM     31  O   UNL     1      11.150  -8.984  -3.366  1.00  0.00    -0.387 OA
ATOM     32  H   UNL     1      11.328  -9.547  -2.580  1.00  0.00    +0.211 HD
ENDBRANCH   4  31
TORSDOF 11
ENDMDL
MODEL 3
REMARK VINA RESULT:    -6.135      2.232      3.421
REMARK INTER + INTRA:         -10.251
REMARK INTER:                  -9.511
REMARK INTRA:                  -0.741
REMARK UNBOUND:                -1.247
REMARK SMILES O=S(=O)(O)OC[C@@H]1O[C@H](O[C@H]2[C@@H]3OC[C@H]2O[C@@H](O)[C@H]3O)[C@@H](O)[C@H](O)[C@@H]1O
REMARK SMILES IDX 9 1 21 2 23 3 25 4 7 5 8 6 10 7 11 8 14 9 15 10 13 11 16 12
REMARK SMILES IDX 12 13 17 14 19 15 18 16 20 18 22 20 24 22 6 24 5 25 2 26
REMARK SMILES IDX 1 27 3 28 4 29 26 31
REMARK H PARENT 18 17 20 19 22 21 24 23 4 30 26 32
ROOT
ATOM      1  C   UNL     1       7.503  -7.474  -8.024  1.00  0.00    +0.282 C 
ATOM      2  C   UNL     1       8.500  -7.549  -9.196  1.00  0.00    +0.202 C 
ATOM      3  C   UNL     1       7.732  -7.326 -10.487  1.00  0.00    +0.179 C 
ATOM      4  C   UNL     1       7.160  -5.905 -10.496  1.00  0.00    +0.177 C 
ATOM      5  C   UNL     1       6.685  -5.438  -9.100  1.00  0.00    +0.180 C 
ATOM      6  O   UNL     1       6.439  -6.541  -8.207  1.00  0.00    -0.341 OA
ENDROOT
BRANCH   1   7
ATOM      7  O   UNL     1       8.251  -7.246  -6.826  1.00  0.00    -0.341 OA
BRANCH   7   8
ATOM      8  C   UNL     1       9.016  -8.378  -6.425  1.00  0.00    +0.184 C 
ATOM      9  C   UNL     1       9.362 -10.302  -5.133  1.00  0.00    +0.195 C 
ATOM     10  C   UNL     1       8.223  -9.461  -5.710  1.00  0.00    +0.179 C 
ATOM     11  O   UNL     1      10.433  -9.369  -4.836  1.00  0.00    -0.370 OA
ATOM     12  O   UNL     1       7.376  -8.880  -4.702  1.00  0.00    -0.342 OA
ATOM     13  C   UNL     1       9.984  -8.066  -5.290  1.00  0.00    +0.184 C 
ATOM     14  C   UNL     1       8.033  -8.149  -3.672  1.00  0.00    +0.279 C 
ATOM     15  C   UNL     1       9.253  -7.334  -4.156  1.00  0.00    +0.202 C 
BRANCH  14  16
ATOM     16  O   UNL     1       8.418  -9.055  -2.642  1.00  0.00    -0.366 OA
ATOM     17  H   UNL     1       7.830  -9.822  -2.759  1.00  0.00    +0.213 HD
ENDBRANCH  14  16
BRANCH  15  18
ATOM     18  O   UNL     1      10.153  -7.070  -3.072  1.00  0.00    -0.385 OA
ATOM     19  H   UNL     1       9.746  -6.308  -2.607  1.00  0.00    +0.211 HD
ENDBRANCH  15  18
ENDBRANCH   7   8
ENDBRANCH   1   7
BRANCH   2  20
ATOM     20  O   UNL     1       9.152  -8.830  -9.250  1.00  0.00    -0.385 OA
ATOM     21  H   UNL     1       8.440  -9.498  -9.202  1.00  0.00    +0.211 HD
ENDBRANCH   2  20
BRANCH   3  22
ATOM     22  O   UNL     1       8.599  -7.494 -11.622  1.00  0.00    -0.387 OA
ATOM     23  H   UNL     1       9.500  -7.556 -11.241  1.00  0.00    +0.211 HD
ENDBRANCH   3  22
BRANCH   5  24
ATOM     24  C   UNL     1       7.558  -4.353  -8.443  1.00  0.00    +0.220 C 
BRANCH  24  25
ATOM     25  O   UNL     1       7.061  -3.075  -8.835  1.00  0.00    -0.245 OA
BRANCH  25  26
ATOM     26  S   UNL     1       8.139  -1.957  -9.308  1.00  0.00    +0.397 S 
ATOM     27  O   UNL     1       7.539  -0.643  -9.263  1.00  0.00    -0.169 OA
ATOM     28  O   UNL     1       8.821  -2.453 -10.483  1.00  0.00    -0.169 OA
BRANCH  26  29
ATOM     29  O   UNL     1       9.237  -2.034  -8.134  1.00  0.00    -0.264 OA
ATOM     30  H   UNL     1       9.518  -1.115  -7.946  1.00  0.00    +0.236 HD
ENDBRANCH  26  29
ENDBRANCH  25  26
ENDBRANCH  24  25
ENDBRANCH   5  24
BRANCH   4  31
ATOM     31  O   UNL     1       8.135  -5.011 -11.044  1.00  0.00    -0.387 OA
ATOM     32  H   UNL     1       7.806  -4.804 -11.948  1.00  0.00    +0.211 HD
ENDBRANCH   4  31
TORSDOF 11
ENDMDL
MODEL 4
REMARK VINA RESULT:    -5.967      2.398      3.577
REMARK INTER + INTRA:         -10.005
REMARK INTER:                  -8.888
REMARK INTRA:                  -1.117
REMARK UNBOUND:                -1.247
REMARK SMILES O=S(=O)(O)OC[C@@H]1O[C@H](O[C@H]2[C@@H]3OC[C@H]2O[C@@H](O)[C@H]3O)[C@@H](O)[C@H](O)[C@@H]1O
REMARK SMILES IDX 9 1 21 2 23 3 25 4 7 5 8 6 10 7 11 8 14 9 15 10 13 11 16 12
REMARK SMILES IDX 12 13 17 14 19 15 18 16 20 18 22 20 24 22 6 24 5 25 2 26
REMARK SMILES IDX 1 27 3 28 4 29 26 31
REMARK H PARENT 18 17 20 19 22 21 24 23 4 30 26 32
ROOT
ATOM      1  C   UNL     1       7.439  -6.584  -7.883  1.00  0.00    +0.282 C 
ATOM      2  C   UNL     1       8.112  -6.809  -9.251  1.00  0.00    +0.202 C 
ATOM      3  C   UNL     1       7.173  -6.300 -10.331  1.00  0.00    +0.179 C 
ATOM      4  C   UNL     1       6.999  -4.786 -10.178  1.00  0.00    +0.177 C 
ATOM      5  C   UNL     1       6.967  -4.330  -8.700  1.00  0.00    +0.180 C 
ATOM      6  O   UNL     1       6.639  -5.406  -7.801  1.00  0.00    -0.341 OA
ENDROOT
BRANCH   1   7
ATOM      7  O   UNL     1       8.456  -6.644  -6.880  1.00  0.00    -0.341 OA
BRANCH   7   8
ATOM      8  C   UNL     1       7.969  -7.105  -5.623  1.00  0.00    +0.184 C 
ATOM      9  C   UNL     1       8.253  -8.108  -3.524  1.00  0.00    +0.195 C 
ATOM     10  C   UNL     1       9.040  -7.305  -4.561  1.00  0.00    +0.179 C 
ATOM     11  O   UNL     1       7.312  -8.914  -4.277  1.00  0.00    -0.370 OA
ATOM     12  O   UNL     1      10.161  -8.023  -5.107  1.00  0.00    -0.342 OA
ATOM     13  C   UNL     1       7.474  -8.546  -5.671  1.00  0.00    +0.184 C 
ATOM     14  C   UNL     1       9.888  -9.323  -5.619  1.00  0.00    +0.279 C 
ATOM     15  C   UNL     1       8.525  -9.445  -6.337  1.00  0.00    +0.202 C 
BRANCH  14  16
ATOM     16  O   UNL     1       9.972 -10.262  -4.551  1.00  0.00    -0.366 OA
ATOM     17  H   UNL     1      10.870 -10.632  -4.622  1.00  0.00    +0.213 HD
ENDBRANCH  14  16
BRANCH  15  18
ATOM     18  O   UNL     1       8.077 -10.806  -6.353  1.00  0.00    -0.385 OA
ATOM     19  H   UNL     1       7.538 -10.887  -5.537  1.00  0.00    +0.211 HD
ENDBRANCH  15  18
ENDBRANCH   7   8
ENDBRANCH   1   7
BRANCH   2  20
ATOM     20  O   UNL     1       8.384  -8.202  -9.480  1.00  0.00    -0.385 OA
ATOM     21  H   UNL     1       7.550  -8.675  -9.289  1.00  0.00    +0.211 HD
ENDBRANCH   2  20
BRANCH   3  22
ATOM     22  O   UNL     1       7.707  -6.585 -11.635  1.00  0.00    -0.387 OA
ATOM     23  H   UNL     1       7.014  -6.285 -12.261  1.00  0.00    +0.211 HD
ENDBRANCH   3  22
BRANCH   5  24
ATOM     24  C   UNL     1       8.209  -3.550  -8.231  1.00  0.00    +0.220 C 
BRANCH  24  25
ATOM     25  O   UNL     1       7.901  -2.158  -8.246  1.00  0.00    -0.245 OA
BRANCH  25  26
ATOM     26  S   UNL     1       8.499  -1.263  -9.462  1.00  0.00    +0.397 S 
ATOM     27  O   UNL     1       9.665  -1.908 -10.021  1.00  0.00    -0.169 OA
ATOM     28  O   UNL     1       8.509   0.120  -9.045  1.00  0.00    -0.169 OA
BRANCH  26  29
ATOM     29  O   UNL     1       7.319  -1.354 -10.554  1.00  0.00    -0.264 OA
ATOM     30  H   UNL     1       6.528  -1.698 -10.091  1.00  0.00    +0.236 HD
ENDBRANCH  26  29
ENDBRANCH  25  26
ENDBRANCH  24  25
ENDBRANCH   5  24
BRANCH   4  31
ATOM     31  O   UNL     1       8.033  -4.119 -10.910  1.00  0.00    -0.387 OA
ATOM     32  H   UNL     1       7.591  -3.340 -11.316  1.00  0.00    +0.211 HD
ENDBRANCH   4  31
TORSDOF 11
ENDMDL
MODEL 5
REMARK VINA RESULT:    -5.661      2.474      6.211
REMARK INTER + INTRA:          -9.555
REMARK INTER:                  -8.042
REMARK INTRA:                  -1.514
REMARK UNBOUND:                -1.247
REMARK SMILES O=S(=O)(O)OC[C@@H]1O[C@H](O[C@H]2[C@@H]3OC[C@H]2O[C@@H](O)[C@H]3O)[C@@H](O)[C@H](O)[C@@H]1O
REMARK SMILES IDX 9 1 21 2 23 3 25 4 7 5 8 6 10 7 11 8 14 9 15 10 13 11 16 12
REMARK SMILES IDX 12 13 17 14 19 15 18 16 20 18 22 20 24 22 6 24 5 25 2 26
REMARK SMILES IDX 1 27 3 28 4 29 26 31
REMARK H PARENT 18 17 20 19 22 21 24 23 4 30 26 32
ROOT
ATOM      1  C   UNL     1       8.673  -9.397  -7.983  1.00  0.00    +0.282 C 
ATOM      2  C   UNL     1       7.753 -10.508  -7.441  1.00  0.00    +0.202 C 
ATOM      3  C   UNL     1       8.541 -11.807  -7.420  1.00  0.00    +0.179 C 
ATOM      4  C   UNL     1       9.698 -11.680  -6.426  1.00  0.00    +0.177 C 
ATOM      5  C   UNL     1      10.332 -10.268  -6.415  1.00  0.00    +0.180 C 
ATOM      6  O   UNL     1      10.045  -9.530  -7.618  1.00  0.00    -0.341 OA
ENDROOT
BRANCH   1   7
ATOM      7  O   UNL     1       8.109  -8.138  -7.603  1.00  0.00    -0.341 OA
BRANCH   7   8
ATOM      8  C   UNL     1       7.270  -7.579  -8.608  1.00  0.00    +0.184 C 
ATOM      9  C   UNL     1       6.558  -5.815  -9.978  1.00  0.00    +0.195 C 
ATOM     10  C   UNL     1       7.810  -6.313  -9.255  1.00  0.00    +0.179 C 
ATOM     11  O   UNL     1       5.437  -6.213  -9.147  1.00  0.00    -0.370 OA
ATOM     12  O   UNL     1       8.290  -5.400  -8.251  1.00  0.00    -0.342 OA
ATOM     13  C   UNL     1       5.990  -6.975  -8.042  1.00  0.00    +0.184 C 
ATOM     14  C   UNL     1       7.333  -4.958  -7.294  1.00  0.00    +0.279 C 
ATOM     15  C   UNL     1       6.318  -6.042  -6.868  1.00  0.00    +0.202 C 
BRANCH  14  16
ATOM     16  O   UNL     1       6.654  -3.820  -7.818  1.00  0.00    -0.366 OA
ATOM     17  H   UNL     1       6.159  -3.460  -7.061  1.00  0.00    +0.213 HD
ENDBRANCH  14  16
BRANCH  15  18
ATOM     18  O   UNL     1       5.120  -5.446  -6.356  1.00  0.00    -0.385 OA
ATOM     19  H   UNL     1       5.373  -4.512  -6.189  1.00  0.00    +0.211 HD
ENDBRANCH  15  18
ENDBRANCH   7   8
ENDBRANCH   1   7
BRANCH   2  20
ATOM     20  O   UNL     1       6.588 -10.676  -8.267  1.00  0.00    -0.385 OA
ATOM     21  H   UNL     1       5.908 -11.083  -7.696  1.00  0.00    +0.211 HD
ENDBRANCH   2  20
BRANCH   3  22
ATOM     22  O   UNL     1       7.695 -12.900  -7.024  1.00  0.00    -0.387 OA
ATOM     23  H   UNL     1       8.223 -13.400  -6.366  1.00  0.00    +0.211 HD
ENDBRANCH   3  22
BRANCH   5  24
ATOM     24  C   UNL     1      10.050  -9.436  -5.151  1.00  0.00    +0.220 C 
BRANCH  24  25
ATOM     25  O   UNL     1      11.188  -8.618  -4.885  1.00  0.00    -0.245 OA
BRANCH  25  26
ATOM     26  S   UNL     1      10.968  -7.011  -4.828  1.00  0.00    +0.397 S 
ATOM     27  O   UNL     1      12.246  -6.337  -4.843  1.00  0.00    -0.169 OA
ATOM     28  O   UNL     1       9.958  -6.726  -3.833  1.00  0.00    -0.169 OA
BRANCH  26  29
ATOM     29  O   UNL     1      10.247  -6.723  -6.238  1.00  0.00    -0.264 OA
ATOM     30  H   UNL     1       9.762  -5.877  -6.143  1.00  0.00    +0.236 HD
ENDBRANCH  26  29
ENDBRANCH  25  26
ENDBRANCH  24  25
ENDBRANCH   5  24
BRANCH   4  31
ATOM     31  O   UNL     1       9.241 -12.058  -5.122  1.00  0.00    -0.387 OA
ATOM     32  H   UNL     1       8.319 -12.370  -5.260  1.00  0.00    +0.211 HD
ENDBRANCH   4  31
TORSDOF 11
ENDMDL
MODEL 6
REMARK VINA RESULT:    -5.613      3.217      7.514
REMARK INTER + INTRA:          -9.485
REMARK INTER:                  -8.994
REMARK INTRA:                  -0.491
REMARK UNBOUND:                -1.247
REMARK SMILES O=S(=O)(O)OC[C@@H]1O[C@H](O[C@H]2[C@@H]3OC[C@H]2O[C@@H](O)[C@H]3O)[C@@H](O)[C@H](O)[C@@H]1O
REMARK SMILES IDX 9 1 21 2 23 3 25 4 7 5 8 6 10 7 11 8 14 9 15 10 13 11 16 12
REMARK SMILES IDX 12 13 17 14 19 15 18 16 20 18 22 20 24 22 6 24 5 25 2 26
REMARK SMILES IDX 1 27 3 28 4 29 26 31
REMARK H PARENT 18 17 20 19 22 21 24 23 4 30 26 32
ROOT
ATOM      1  C   UNL     1       8.345  -7.470  -5.745  1.00  0.00    +0.282 C 
ATOM      2  C   UNL     1       9.801  -6.967  -5.725  1.00  0.00    +0.202 C 
ATOM      3  C   UNL     1      10.260  -6.902  -4.278  1.00  0.00    +0.179 C 
ATOM      4  C   UNL     1      10.283  -8.317  -3.692  1.00  0.00    +0.177 C 
ATOM      5  C   UNL     1       9.122  -9.201  -4.207  1.00  0.00    +0.180 C 
ATOM      6  O   UNL     1       8.030  -8.423  -4.731  1.00  0.00    -0.341 OA
ENDROOT
BRANCH   1   7
ATOM      7  O   UNL     1       8.063  -7.942  -7.066  1.00  0.00    -0.341 OA
BRANCH   7   8
ATOM      8  C   UNL     1       6.675  -7.910  -7.383  1.00  0.00    +0.184 C 
ATOM      9  C   UNL     1       4.879  -7.458  -8.820  1.00  0.00    +0.195 C 
ATOM     10  C   UNL     1       6.364  -7.823  -8.869  1.00  0.00    +0.179 C 
ATOM     11  O   UNL     1       4.711  -6.647  -7.628  1.00  0.00    -0.370 OA
ATOM     12  O   UNL     1       7.178  -6.816  -9.495  1.00  0.00    -0.342 OA
ATOM     13  C   UNL     1       6.002  -6.607  -6.968  1.00  0.00    +0.184 C 
ATOM     14  C   UNL     1       7.032  -5.489  -8.999  1.00  0.00    +0.279 C 
ATOM     15  C   UNL     1       6.817  -5.407  -7.471  1.00  0.00    +0.202 C 
BRANCH  14  16
ATOM     16  O   UNL     1       5.953  -4.860  -9.687  1.00  0.00    -0.366 OA
ATOM     17  H   UNL     1       5.233  -5.516  -9.663  1.00  0.00    +0.213 HD
ENDBRANCH  14  16
BRANCH  15  18
ATOM     18  O   UNL     1       6.168  -4.180  -7.113  1.00  0.00    -0.385 OA
ATOM     19  H   UNL     1       5.999  -3.742  -7.974  1.00  0.00    +0.211 HD
ENDBRANCH  15  18
ENDBRANCH   7   8
ENDBRANCH   1   7
BRANCH   2  20
ATOM     20  O   UNL     1       9.913  -5.660  -6.315  1.00  0.00    -0.385 OA
ATOM     21  H   UNL     1      10.186  -5.060  -5.593  1.00  0.00    +0.211 HD
ENDBRANCH   2  20
BRANCH   3  22
ATOM     22  O   UNL     1      11.578  -6.334  -4.195  1.00  0.00    -0.387 OA
ATOM     23  H   UNL     1      11.946  -6.678  -3.354  1.00  0.00    +0.211 HD
ENDBRANCH   3  22
BRANCH   5  24
ATOM     24  C   UNL     1       9.539 -10.328  -5.170  1.00  0.00    +0.220 C 
BRANCH  24  25
ATOM     25  O   UNL     1       8.664 -11.436  -4.976  1.00  0.00    -0.245 OA
BRANCH  25  26
ATOM     26  S   UNL     1       9.151 -12.619  -3.977  1.00  0.00    +0.397 S 
ATOM     27  O   UNL     1      10.570 -12.503  -3.729  1.00  0.00    -0.169 OA
ATOM     28  O   UNL     1       8.544 -13.858  -4.410  1.00  0.00    -0.169 OA
BRANCH  26  29
ATOM     29  O   UNL     1       8.384 -12.242  -2.613  1.00  0.00    -0.264 OA
ATOM     30  H   UNL     1       7.489 -11.937  -2.865  1.00  0.00    +0.236 HD
ENDBRANCH  26  29
ENDBRANCH  25  26
ENDBRANCH  24  25
ENDBRANCH   5  24
BRANCH   4  31
ATOM     31  O   UNL     1      11.556  -8.915  -3.959  1.00  0.00    -0.387 OA
ATOM     32  H   UNL     1      11.512  -9.800  -3.533  1.00  0.00    +0.211 HD
ENDBRANCH   4  31
TORSDOF 11
ENDMDL
MODEL 7
REMARK VINA RESULT:    -5.567      2.775      6.609
REMARK INTER + INTRA:          -9.418
REMARK INTER:                  -8.436
REMARK INTRA:                  -0.982
REMARK UNBOUND:                -1.247
REMARK SMILES O=S(=O)(O)OC[C@@H]1O[C@H](O[C@H]2[C@@H]3OC[C@H]2O[C@@H](O)[C@H]3O)[C@@H](O)[C@H](O)[C@@H]1O
REMARK SMILES IDX 9 1 21 2 23 3 25 4 7 5 8 6 10 7 11 8 14 9 15 10 13 11 16 12
REMARK SMILES IDX 12 13 17 14 19 15 18 16 20 18 22 20 24 22 6 24 5 25 2 26
REMARK SMILES IDX 1 27 3 28 4 29 26 31
REMARK H PARENT 18 17 20 19 22 21 24 23 4 30 26 32
ROOT
ATOM      1  C   UNL     1       8.371  -7.365  -5.120  1.00  0.00    +0.282 C 
ATOM      2  C   UNL     1       9.837  -7.557  -4.687  1.00  0.00    +0.202 C 
ATOM      3  C   UNL     1       9.854  -8.442  -3.452  1.00  0.00    +0.179 C 
ATOM      4  C   UNL     1       9.325  -9.832  -3.818  1.00  0.00    +0.177 C 
ATOM      5  C   UNL     1       8.173  -9.785  -4.850  1.00  0.00    +0.180 C 
ATOM      6  O   UNL     1       7.532  -8.496  -4.898  1.00  0.00    -0.341 OA
ENDROOT
BRANCH   1   7
ATOM      7  O   UNL     1       8.372  -6.924  -6.481  1.00  0.00    -0.341 OA
BRANCH   7   8
ATOM      8  C   UNL     1       7.896  -5.591  -6.633  1.00  0.00    +0.184 C 
ATOM      9  C   UNL     1       6.255  -4.022  -7.216  1.00  0.00    +0.195 C 
ATOM     10  C   UNL     1       6.382  -5.461  -6.714  1.00  0.00    +0.179 C 
ATOM     11  O   UNL     1       7.408  -3.795  -8.067  1.00  0.00    -0.370 OA
ATOM     12  O   UNL     1       5.843  -6.433  -7.627  1.00  0.00    -0.342 OA
ATOM     13  C   UNL     1       8.213  -5.001  -8.003  1.00  0.00    +0.184 C 
ATOM     14  C   UNL     1       6.302  -6.357  -8.972  1.00  0.00    +0.279 C 
ATOM     15  C   UNL     1       7.793  -5.978  -9.110  1.00  0.00    +0.202 C 
BRANCH  14  16
ATOM     16  O   UNL     1       5.486  -5.429  -9.682  1.00  0.00    -0.366 OA
ATOM     17  H   UNL     1       6.118  -4.857 -10.151  1.00  0.00    +0.213 HD
ENDBRANCH  14  16
BRANCH  15  18
ATOM     18  O   UNL     1       8.058  -5.411 -10.400  1.00  0.00    -0.385 OA
ATOM     19  H   UNL     1       7.922  -6.160 -11.019  1.00  0.00    +0.211 HD
ENDBRANCH  15  18
ENDBRANCH   7   8
ENDBRANCH   1   7
BRANCH   2  20
ATOM     20  O   UNL     1      10.463  -6.300  -4.376  1.00  0.00    -0.385 OA
ATOM     21  H   UNL     1      10.664  -6.327  -3.420  1.00  0.00    +0.211 HD
ENDBRANCH   2  20
BRANCH   3  22
ATOM     22  O   UNL     1      11.192  -8.565  -2.941  1.00  0.00    -0.387 OA
ATOM     23  H   UNL     1      11.193  -9.408  -2.440  1.00  0.00    +0.211 HD
ENDBRANCH   3  22
BRANCH   5  24
ATOM     24  C   UNL     1       8.534 -10.298  -6.255  1.00  0.00    +0.220 C 
BRANCH  24  25
ATOM     25  O   UNL     1       7.402 -10.125  -7.105  1.00  0.00    -0.245 OA
BRANCH  25  26
ATOM     26  S   UNL     1       7.493 -10.712  -8.616  1.00  0.00    +0.397 S 
ATOM     27  O   UNL     1       8.420 -11.820  -8.660  1.00  0.00    -0.169 OA
ATOM     28  O   UNL     1       7.582  -9.596  -9.531  1.00  0.00    -0.169 OA
BRANCH  26  29
ATOM     29  O   UNL     1       6.013 -11.304  -8.834  1.00  0.00    -0.264 OA
ATOM     30  H   UNL     1       5.389 -10.671  -8.422  1.00  0.00    +0.236 HD
ENDBRANCH  26  29
ENDBRANCH  25  26
ENDBRANCH  24  25
ENDBRANCH   5  24
BRANCH   4  31
ATOM     31  O   UNL     1      10.412 -10.640  -4.283  1.00  0.00    -0.387 OA
ATOM     32  H   UNL     1      10.010 -11.518  -4.469  1.00  0.00    +0.211 HD
ENDBRANCH   4  31
TORSDOF 11
ENDMDL
MODEL 8
REMARK VINA RESULT:    -5.489      2.488      6.353
REMARK INTER + INTRA:          -9.303
REMARK INTER:                  -8.742
REMARK INTRA:                  -0.561
REMARK UNBOUND:                -1.247
REMARK SMILES O=S(=O)(O)OC[C@@H]1O[C@H](O[C@H]2[C@@H]3OC[C@H]2O[C@@H](O)[C@H]3O)[C@@H](O)[C@H](O)[C@@H]1O
REMARK SMILES IDX 9 1 21 2 23 3 25 4 7 5 8 6 10 7 11 8 14 9 15 10 13 11 16 12
REMARK SMILES IDX 12 13 17 14 19 15 18 16 20 18 22 20 24 22 6 24 5 25 2 26
REMARK SMILES IDX 1 27 3 28 4 29 26 31
REMARK H PARENT 18 17 20 19 22 21 24 23 4 30 26 32
ROOT
ATOM      1  C   UNL     1       7.907  -9.237  -5.801  1.00  0.00    +0.282 C 
ATOM      2  C   UNL     1       7.921  -8.277  -4.595  1.00  0.00    +0.202 C 
ATOM      3  C   UNL     1       8.828  -8.868  -3.530  1.00  0.00    +0.179 C 
ATOM      4  C   UNL     1      10.264  -8.919  -4.060  1.00  0.00    +0.177 C 
ATOM      5  C   UNL     1      10.339  -9.263  -5.566  1.00  0.00    +0.180 C 
ATOM      6  O   UNL     1       9.142  -9.909  -6.041  1.00  0.00    -0.341 OA
ENDROOT
BRANCH   1   7
ATOM      7  O   UNL     1       7.434  -8.506  -6.936  1.00  0.00    -0.341 OA
BRANCH   7   8
ATOM      8  C   UNL     1       7.328  -7.108  -6.692  1.00  0.00    +0.184 C 
ATOM      9  C   UNL     1       6.252  -5.036  -6.900  1.00  0.00    +0.195 C 
ATOM     10  C   UNL     1       5.934  -6.532  -6.889  1.00  0.00    +0.179 C 
ATOM     11  O   UNL     1       7.568  -4.915  -7.499  1.00  0.00    -0.370 OA
ATOM     12  O   UNL     1       5.365  -7.003  -8.123  1.00  0.00    -0.342 OA
ATOM     13  C   UNL     1       8.035  -6.266  -7.748  1.00  0.00    +0.184 C 
ATOM     14  C   UNL     1       6.080  -6.679  -9.311  1.00  0.00    +0.279 C 
ATOM     15  C   UNL     1       7.616  -6.720  -9.154  1.00  0.00    +0.202 C 
BRANCH  14  16
ATOM     16  O   UNL     1       5.661  -5.393  -9.760  1.00  0.00    -0.366 OA
ATOM     17  H   UNL     1       5.491  -4.892  -8.942  1.00  0.00    +0.213 HD
ENDBRANCH  14  16
BRANCH  15  18
ATOM     18  O   UNL     1       8.253  -5.908 -10.149  1.00  0.00    -0.385 OA
ATOM     19  H   UNL     1       8.908  -5.382  -9.642  1.00  0.00    +0.211 HD
ENDBRANCH  15  18
ENDBRANCH   7   8
ENDBRANCH   1   7
BRANCH   2  20
ATOM     20  O   UNL     1       6.603  -8.101  -4.049  1.00  0.00    -0.385 OA
ATOM     21  H   UNL     1       6.709  -8.111  -3.077  1.00  0.00    +0.211 HD
ENDBRANCH   2  20
BRANCH   3  22
ATOM     22  O   UNL     1       8.792  -8.065  -2.338  1.00  0.00    -0.387 OA
ATOM     23  H   UNL     1       9.148  -7.193  -2.613  1.00  0.00    +0.211 HD
ENDBRANCH   3  22
BRANCH   5  24
ATOM     24  C   UNL     1      10.765  -8.100  -6.481  1.00  0.00    +0.220 C 
BRANCH  24  25
ATOM     25  O   UNL     1      12.124  -7.776  -6.198  1.00  0.00    -0.245 OA
BRANCH  25  26
ATOM     26  S   UNL     1      13.261  -8.320  -7.221  1.00  0.00    +0.397 S 
ATOM     27  O   UNL     1      12.643  -8.803  -8.435  1.00  0.00    -0.169 OA
ATOM     28  O   UNL     1      14.205  -9.115  -6.469  1.00  0.00    -0.169 OA
BRANCH  26  29
ATOM     29  O   UNL     1      14.059  -6.969  -7.582  1.00  0.00    -0.264 OA
ATOM     30  H   UNL     1      14.194  -6.485  -6.742  1.00  0.00    +0.236 HD
ENDBRANCH  26  29
ENDBRANCH  25  26
ENDBRANCH  24  25
ENDBRANCH   5  24
BRANCH   4  31
ATOM     31  O   UNL     1      10.914  -7.675  -3.774  1.00  0.00    -0.387 OA
ATOM     32  H   UNL     1      11.058  -7.259  -4.653  1.00  0.00    +0.211 HD
ENDBRANCH   4  31
TORSDOF 11
ENDMDL
MODEL 9
REMARK VINA RESULT:    -5.476      1.854      2.861
REMARK INTER + INTRA:          -9.284
REMARK INTER:                  -8.308
REMARK INTRA:                  -0.976
REMARK UNBOUND:                -1.247
REMARK SMILES O=S(=O)(O)OC[C@@H]1O[C@H](O[C@H]2[C@@H]3OC[C@H]2O[C@@H](O)[C@H]3O)[C@@H](O)[C@H](O)[C@@H]1O
REMARK SMILES IDX 9 1 21 2 23 3 25 4 7 5 8 6 10 7 11 8 14 9 15 10 13 11 16 12
REMARK SMILES IDX 12 13 17 14 19 15 18 16 20 18 22 20 24 22 6 24 5 25 2 26
REMARK SMILES IDX 1 27 3 28 4 29 26 31
REMARK H PARENT 18 17 20 19 22 21 24 23 4 30 26 32
ROOT
ATOM      1  C   UNL     1      10.026  -7.345  -4.858  1.00  0.00    +0.282 C 
ATOM      2  C   UNL     1       9.299  -8.699  -4.740  1.00  0.00    +0.202 C 
ATOM      3  C   UNL     1       7.884  -8.437  -4.252  1.00  0.00    +0.179 C 
ATOM      4  C   UNL     1       7.126  -7.629  -5.309  1.00  0.00    +0.177 C 
ATOM      5  C   UNL     1       8.017  -6.584  -6.023  1.00  0.00    +0.180 C 
ATOM      6  O   UNL     1       9.196  -6.258  -5.262  1.00  0.00    -0.341 OA
ENDROOT
BRANCH   1   7
ATOM      7  O   UNL     1      11.162  -7.531  -5.707  1.00  0.00    -0.341 OA
BRANCH   7   8
ATOM      8  C   UNL     1      12.394  -7.534  -4.993  1.00  0.00    +0.184 C 
ATOM      9  C   UNL     1      14.710  -7.210  -4.840  1.00  0.00    +0.195 C 
ATOM     10  C   UNL     1      13.500  -6.707  -5.629  1.00  0.00    +0.179 C 
ATOM     11  O   UNL     1      14.436  -8.602  -4.538  1.00  0.00    -0.370 OA
ATOM     12  O   UNL     1      13.585  -6.982  -7.039  1.00  0.00    -0.342 OA
ATOM     13  C   UNL     1      13.105  -8.881  -5.046  1.00  0.00    +0.184 C 
ATOM     14  C   UNL     1      13.863  -8.330  -7.403  1.00  0.00    +0.279 C 
ATOM     15  C   UNL     1      13.186  -9.381  -6.495  1.00  0.00    +0.202 C 
BRANCH  14  16
ATOM     16  O   UNL     1      15.276  -8.519  -7.412  1.00  0.00    -0.366 OA
ATOM     17  H   UNL     1      15.639  -7.662  -7.128  1.00  0.00    +0.213 HD
ENDBRANCH  14  16
BRANCH  15  18
ATOM     18  O   UNL     1      13.885 -10.631  -6.552  1.00  0.00    -0.385 OA
ATOM     19  H   UNL     1      14.772 -10.390  -6.896  1.00  0.00    +0.211 HD
ENDBRANCH  15  18
ENDBRANCH   7   8
ENDBRANCH   1   7
BRANCH   2  20
ATOM     20  O   UNL     1       9.964  -9.573  -3.813  1.00  0.00    -0.385 OA
ATOM     21  H   UNL     1      10.652 -10.040  -4.327  1.00  0.00    +0.211 HD
ENDBRANCH   2  20
BRANCH   3  22
ATOM     22  O   UNL     1       7.196  -9.678  -4.020  1.00  0.00    -0.387 OA
ATOM     23  H   UNL     1       7.279 -10.171  -4.863  1.00  0.00    +0.211 HD
ENDBRANCH   3  22
BRANCH   5  24
ATOM     24  C   UNL     1       8.352  -6.906  -7.490  1.00  0.00    +0.220 C 
BRANCH  24  25
ATOM     25  O   UNL     1       7.217  -6.591  -8.294  1.00  0.00    -0.245 OA
BRANCH  25  26
ATOM     26  S   UNL     1       7.358  -5.372  -9.357  1.00  0.00    +0.397 S 
ATOM     27  O   UNL     1       8.056  -5.826 -10.539  1.00  0.00    -0.169 OA
ATOM     28  O   UNL     1       7.756  -4.184  -8.636  1.00  0.00    -0.169 OA
BRANCH  26  29
ATOM     29  O   UNL     1       5.824  -5.108  -9.767  1.00  0.00    -0.264 OA
ATOM     30  H   UNL     1       5.834  -4.503 -10.536  1.00  0.00    +0.236 HD
ENDBRANCH  26  29
ENDBRANCH  25  26
ENDBRANCH  24  25
ENDBRANCH   5  24
BRANCH   4  31
ATOM     31  O   UNL     1       6.524  -8.530  -6.245  1.00  0.00    -0.387 OA
ATOM     32  H   UNL     1       5.792  -8.958  -5.746  1.00  0.00    +0.211 HD
ENDBRANCH   4  31
TORSDOF 11
ENDMDL
