MODEL 1
REMARK VINA RESULT:    -9.288      0.000      0.000
REMARK INTER + INTRA:         -21.892
REMARK INTER:                 -19.062
REMARK INTRA:                  -2.830
REMARK UNBOUND:                -2.830
REMARK SMILES O=C[C@@H](O)[C@@H](O)[C@H](CO)O[C@H]1OC[C@@H](O[C@@H]2OC[C@H](O[C@H]3OC[C@H](O[C@H]4OC[C@H](O)[C@H](O)[C@@H]4O)[C@@H](O)[C@H]3O)[C@H](O)[C@@H]2O)[C@@H](O)[C@H]1O
REMARK SMILES IDX 15 1 16 2 19 3 18 4 39 5 17 6 41 7 20 8 21 9 24 10 23 11
REMARK SMILES IDX 35 12 22 13 37 14 25 15 26 16 28 17 29 18 27 19 31 20 33 21
REMARK SMILES IDX 30 22 32 24 34 26 36 28 38 30 40 32 42 34 14 36 13 37 43 38
REMARK SMILES IDX 12 39 45 40 11 41 44 42 46 44 10 46 7 47 8 48 9 49 5 51 3 52
REMARK SMILES IDX 2 53 1 54 4 55 6 57
REMARK H PARENT 30 23 32 25 34 27 36 29 38 31 40 33 42 35 44 43 46 45 9 50
REMARK H PARENT 4 56 6 58
ROOT
ATOM      1  O   UNL     1       4.729   6.226  -8.255  1.00  0.00    -0.341 OA
ENDROOT
BRANCH   1   2
ATOM      2  C   UNL     1       5.966   6.374  -8.957  1.00  0.00    +0.282 C 
ATOM      3  C   UNL     1       8.617   5.045  -8.891  1.00  0.00    +0.179 C 
ATOM      4  C   UNL     1       7.252   4.356  -9.049  1.00  0.00    +0.198 C 
ATOM      5  C   UNL     1       8.435   6.555  -8.606  1.00  0.00    +0.179 C 
ATOM      6  O   UNL     1       6.312   5.202  -9.706  1.00  0.00    -0.347 OA
ATOM      7  C   UNL     1       7.071   6.841  -7.975  1.00  0.00    +0.202 C 
BRANCH   3   8
ATOM      8  O   UNL     1       9.394   4.480  -7.822  1.00  0.00    -0.341 OA
BRANCH   8   9
ATOM      9  C   UNL     1       8.925   3.210  -7.355  1.00  0.00    +0.282 C 
ATOM     10  C   UNL     1      11.453   2.886  -6.266  1.00  0.00    +0.179 C 
ATOM     11  C   UNL     1      10.840   1.763  -7.112  1.00  0.00    +0.198 C 
ATOM     12  C   UNL     1      10.388   3.470  -5.315  1.00  0.00    +0.179 C 
ATOM     13  O   UNL     1       9.715   2.155  -7.902  1.00  0.00    -0.347 OA
ATOM     14  C   UNL     1       8.958   3.193  -5.812  1.00  0.00    +0.202 C 
BRANCH  10  15
ATOM     15  O   UNL     1      12.588   2.340  -5.578  1.00  0.00    -0.341 OA
BRANCH  15  16
ATOM     16  C   UNL     1      12.450   2.335  -4.151  1.00  0.00    +0.282 C 
ATOM     17  C   UNL     1      12.815   0.923  -2.280  1.00  0.00    +0.198 C 
ATOM     18  C   UNL     1      14.112   1.607  -1.834  1.00  0.00    +0.171 C 
ATOM     19  O   UNL     1      12.666   0.993  -3.695  1.00  0.00    -0.347 OA
ATOM     20  C   UNL     1      14.655   2.544  -2.928  1.00  0.00    +0.179 C 
ATOM     21  C   UNL     1      13.503   3.317  -3.574  1.00  0.00    +0.202 C 
BRANCH  18  22
ATOM     22  O   UNL     1      13.888   2.362  -0.632  1.00  0.00    -0.388 OA
ATOM     23  H   UNL     1      13.298   1.815  -0.070  1.00  0.00    +0.211 HD
ENDBRANCH  18  22
BRANCH  20  24
ATOM     24  O   UNL     1      15.586   3.480  -2.353  1.00  0.00    -0.387 OA
ATOM     25  H   UNL     1      16.447   3.306  -2.788  1.00  0.00    +0.211 HD
ENDBRANCH  20  24
BRANCH  21  26
ATOM     26  O   UNL     1      12.913   4.152  -2.548  1.00  0.00    -0.385 OA
ATOM     27  H   UNL     1      12.611   4.948  -3.033  1.00  0.00    +0.211 HD
ENDBRANCH  21  26
ENDBRANCH  15  16
ENDBRANCH  10  15
BRANCH  12  28
ATOM     28  O   UNL     1      10.601   4.893  -5.192  1.00  0.00    -0.387 OA
ATOM     29  H   UNL     1       9.725   5.309  -5.326  1.00  0.00    +0.211 HD
ENDBRANCH  12  28
BRANCH  14  30
ATOM     30  O   UNL     1       8.059   4.153  -5.239  1.00  0.00    -0.385 OA
ATOM     31  H   UNL     1       7.516   3.685  -4.578  1.00  0.00    +0.211 HD
ENDBRANCH  14  30
ENDBRANCH   8   9
ENDBRANCH   3   8
BRANCH   5  32
ATOM     32  O   UNL     1       9.474   7.044  -7.746  1.00  0.00    -0.387 OA
ATOM     33  H   UNL     1       9.203   6.797  -6.835  1.00  0.00    +0.211 HD
ENDBRANCH   5  32
BRANCH   7  34
ATOM     34  O   UNL     1       6.989   6.150  -6.712  1.00  0.00    -0.385 OA
ATOM     35  H   UNL     1       7.776   6.433  -6.208  1.00  0.00    +0.211 HD
ENDBRANCH   7  34
ENDBRANCH   1   2
BRANCH   1  36
ATOM     36  C   UNL     1       3.576   6.371  -9.086  1.00  0.00    +0.179 C 
ATOM     37  C   UNL     1       2.893   7.712  -8.820  1.00  0.00    +0.198 C 
ATOM     38  C   UNL     1       2.584   5.223  -8.803  1.00  0.00    +0.179 C 
ATOM     39  O   UNL     1       1.783   7.948  -9.694  1.00  0.00    -0.347 OA
ATOM     40  C   UNL     1       1.122   5.658  -8.996  1.00  0.00    +0.202 C 
ATOM     41  C   UNL     1       1.041   6.775 -10.058  1.00  0.00    +0.282 C 
BRANCH  38  42
ATOM     42  O   UNL     1       2.731   4.721  -7.458  1.00  0.00    -0.387 OA
ATOM     43  H   UNL     1       3.154   3.839  -7.550  1.00  0.00    +0.211 HD
ENDBRANCH  38  42
BRANCH  40  44
ATOM     44  O   UNL     1       0.598   6.115  -7.730  1.00  0.00    -0.385 OA
ATOM     45  H   UNL     1       0.265   7.018  -7.915  1.00  0.00    +0.211 HD
ENDBRANCH  40  44
BRANCH  41  46
ATOM     46  O   UNL     1      -0.329   7.115 -10.273  1.00  0.00    -0.341 OA
BRANCH  46  47
ATOM     47  C   UNL     1      -0.590   8.527 -10.309  1.00  0.00    +0.178 C 
BRANCH  47  48
ATOM     48  C   UNL     1      -0.256   9.039 -11.715  1.00  0.00    +0.191 C 
BRANCH  48  49
ATOM     49  O   UNL     1       0.085  10.419 -11.687  1.00  0.00    -0.394 OA
ATOM     50  H   UNL     1      -0.520  10.842 -11.052  1.00  0.00    +0.210 HD
ENDBRANCH  48  49
ENDBRANCH  47  48
BRANCH  47  51
ATOM     51  C   UNL     1      -2.052   8.803  -9.868  1.00  0.00    +0.181 C 
BRANCH  51  52
ATOM     52  C   UNL     1      -2.376   8.386  -8.423  1.00  0.00    +0.209 C 
BRANCH  52  53
ATOM     53  C   UNL     1      -3.767   8.885  -8.053  1.00  0.00    +0.258 C 
ATOM     54  O   UNL     1      -3.951   9.960  -7.480  1.00  0.00    -0.300 OA
ENDBRANCH  52  53
BRANCH  52  55
ATOM     55  O   UNL     1      -2.346   6.969  -8.252  1.00  0.00    -0.383 OA
ATOM     56  H   UNL     1      -3.116   6.751  -7.687  1.00  0.00    +0.211 HD
ENDBRANCH  52  55
ENDBRANCH  51  52
BRANCH  51  57
ATOM     57  O   UNL     1      -2.324  10.216 -10.000  1.00  0.00    -0.387 OA
ATOM     58  H   UNL     1      -1.455  10.666 -10.099  1.00  0.00    +0.211 HD
ENDBRANCH  51  57
ENDBRANCH  47  51
ENDBRANCH  46  47
ENDBRANCH  41  46
ENDBRANCH   1  36
TORSDOF 24
ENDMDL
MODEL 2
REMARK VINA RESULT:    -8.619      1.240      2.451
REMARK INTER + INTRA:         -20.518
REMARK INTER:                 -18.044
REMARK INTRA:                  -2.474
REMARK UNBOUND:                -2.830
REMARK SMILES O=C[C@@H](O)[C@@H](O)[C@H](CO)O[C@H]1OC[C@@H](O[C@@H]2OC[C@H](O[C@H]3OC[C@H](O[C@H]4OC[C@H](O)[C@H](O)[C@@H]4O)[C@@H](O)[C@H]3O)[C@H](O)[C@@H]2O)[C@@H](O)[C@H]1O
REMARK SMILES IDX 15 1 16 2 19 3 18 4 39 5 17 6 41 7 20 8 21 9 24 10 23 11
REMARK SMILES IDX 35 12 22 13 37 14 25 15 26 16 28 17 29 18 27 19 31 20 33 21
REMARK SMILES IDX 30 22 32 24 34 26 36 28 38 30 40 32 42 34 14 36 13 37 43 38
REMARK SMILES IDX 12 39 45 40 11 41 44 42 46 44 10 46 7 47 8 48 9 49 5 51 3 52
REMARK SMILES IDX 2 53 1 54 4 55 6 57
REMARK H PARENT 30 23 32 25 34 27 36 29 38 31 40 33 42 35 44 43 46 45 9 50
REMARK H PARENT 4 56 6 58
ROOT
ATOM      1  O   UNL     1       4.962   5.437  -8.297  1.00  0.00    -0.341 OA
ENDROOT
BRANCH   1   2
ATOM      2  C   UNL     1       6.216   6.057  -8.594  1.00  0.00    +0.282 C 
ATOM      3  C   UNL     1       9.073   5.306  -8.325  1.00  0.00    +0.179 C 
ATOM      4  C   UNL     1       7.973   4.488  -9.022  1.00  0.00    +0.198 C 
ATOM      5  C   UNL     1       8.467   6.543  -7.619  1.00  0.00    +0.179 C 
ATOM      6  O   UNL     1       6.966   5.331  -9.576  1.00  0.00    -0.347 OA
ATOM      7  C   UNL     1       6.993   6.320  -7.278  1.00  0.00    +0.202 C 
BRANCH   3   8
ATOM      8  O   UNL     1       9.787   4.537  -7.344  1.00  0.00    -0.341 OA
BRANCH   8   9
ATOM      9  C   UNL     1       9.562   3.124  -7.418  1.00  0.00    +0.282 C 
ATOM     10  C   UNL     1      11.937   2.860  -6.014  1.00  0.00    +0.179 C 
ATOM     11  C   UNL     1      11.708   2.030  -7.283  1.00  0.00    +0.198 C 
ATOM     12  C   UNL     1      10.654   2.876  -5.157  1.00  0.00    +0.179 C 
ATOM     13  O   UNL     1      10.634   2.484  -8.110  1.00  0.00    -0.347 OA
ATOM     14  C   UNL     1       9.400   2.560  -5.991  1.00  0.00    +0.202 C 
BRANCH  10  15
ATOM     15  O   UNL     1      13.068   2.301  -5.329  1.00  0.00    -0.341 OA
BRANCH  15  16
ATOM     16  C   UNL     1      12.940   2.310  -3.902  1.00  0.00    +0.282 C 
ATOM     17  C   UNL     1      13.689   1.124  -1.989  1.00  0.00    +0.198 C 
ATOM     18  C   UNL     1      14.745   2.157  -1.582  1.00  0.00    +0.171 C 
ATOM     19  O   UNL     1      13.523   1.098  -3.403  1.00  0.00    -0.347 OA
ATOM     20  C   UNL     1      15.003   3.168  -2.713  1.00  0.00    +0.179 C 
ATOM     21  C   UNL     1      13.679   3.566  -3.371  1.00  0.00    +0.202 C 
BRANCH  18  22
ATOM     22  O   UNL     1      14.322   2.863  -0.403  1.00  0.00    -0.388 OA
ATOM     23  H   UNL     1      14.654   2.344   0.361  1.00  0.00    +0.211 HD
ENDBRANCH  18  22
BRANCH  20  24
ATOM     24  O   UNL     1      15.636   4.347  -2.182  1.00  0.00    -0.387 OA
ATOM     25  H   UNL     1      15.108   5.107  -2.505  1.00  0.00    +0.211 HD
ENDBRANCH  20  24
BRANCH  21  26
ATOM     26  O   UNL     1      12.882   4.240  -2.367  1.00  0.00    -0.385 OA
ATOM     27  H   UNL     1      12.749   5.140  -2.732  1.00  0.00    +0.211 HD
ENDBRANCH  21  26
ENDBRANCH  15  16
ENDBRANCH  10  15
BRANCH  12  28
ATOM     28  O   UNL     1      10.522   4.173  -4.537  1.00  0.00    -0.387 OA
ATOM     29  H   UNL     1      11.045   4.790  -5.089  1.00  0.00    +0.211 HD
ENDBRANCH  12  28
BRANCH  14  30
ATOM     30  O   UNL     1       8.241   3.085  -5.327  1.00  0.00    -0.385 OA
ATOM     31  H   UNL     1       7.878   3.793  -5.891  1.00  0.00    +0.211 HD
ENDBRANCH  14  30
ENDBRANCH   8   9
ENDBRANCH   3   8
BRANCH   5  32
ATOM     32  O   UNL     1       9.195   6.858  -6.423  1.00  0.00    -0.387 OA
ATOM     33  H   UNL     1       8.515   7.033  -5.737  1.00  0.00    +0.211 HD
ENDBRANCH   5  32
BRANCH   7  34
ATOM     34  O   UNL     1       6.888   5.208  -6.366  1.00  0.00    -0.385 OA
ATOM     35  H   UNL     1       6.018   4.804  -6.546  1.00  0.00    +0.211 HD
ENDBRANCH   7  34
ENDBRANCH   1   2
BRANCH   1  36
ATOM     36  C   UNL     1       3.870   5.958  -9.057  1.00  0.00    +0.179 C 
ATOM     37  C   UNL     1       3.677   7.445  -8.759  1.00  0.00    +0.198 C 
ATOM     38  C   UNL     1       2.579   5.191  -8.703  1.00  0.00    +0.179 C 
ATOM     39  O   UNL     1       2.652   8.040  -9.564  1.00  0.00    -0.347 OA
ATOM     40  C   UNL     1       1.328   6.079  -8.809  1.00  0.00    +0.202 C 
ATOM     41  C   UNL     1       1.549   7.175  -9.872  1.00  0.00    +0.282 C 
BRANCH  38  42
ATOM     42  O   UNL     1       2.637   4.652  -7.366  1.00  0.00    -0.387 OA
ATOM     43  H   UNL     1       2.422   3.697  -7.456  1.00  0.00    +0.211 HD
ENDBRANCH  38  42
BRANCH  40  44
ATOM     44  O   UNL     1       1.059   6.666  -7.517  1.00  0.00    -0.385 OA
ATOM     45  H   UNL     1       1.931   6.997  -7.212  1.00  0.00    +0.211 HD
ENDBRANCH  40  44
BRANCH  41  46
ATOM     46  O   UNL     1       0.353   7.944 -10.005  1.00  0.00    -0.341 OA
BRANCH  46  47
ATOM     47  C   UNL     1      -0.598   7.403 -10.936  1.00  0.00    +0.178 C 
BRANCH  47  48
ATOM     48  C   UNL     1      -1.945   7.267 -10.217  1.00  0.00    +0.191 C 
BRANCH  48  49
ATOM     49  O   UNL     1      -2.475   8.543  -9.883  1.00  0.00    -0.394 OA
ATOM     50  H   UNL     1      -2.529   9.049 -10.714  1.00  0.00    +0.210 HD
ENDBRANCH  48  49
ENDBRANCH  47  48
BRANCH  47  51
ATOM     51  C   UNL     1      -0.649   8.288 -12.210  1.00  0.00    +0.181 C 
BRANCH  51  52
ATOM     52  C   UNL     1       0.716   8.536 -12.873  1.00  0.00    +0.209 C 
BRANCH  52  53
ATOM     53  C   UNL     1       0.504   9.005 -14.307  1.00  0.00    +0.258 C 
ATOM     54  O   UNL     1       0.369   8.218 -15.245  1.00  0.00    -0.300 OA
ENDBRANCH  52  53
BRANCH  52  55
ATOM     55  O   UNL     1       1.478   9.528 -12.183  1.00  0.00    -0.383 OA
ATOM     56  H   UNL     1       1.129  10.392 -12.486  1.00  0.00    +0.211 HD
ENDBRANCH  52  55
ENDBRANCH  51  52
BRANCH  51  57
ATOM     57  O   UNL     1      -1.514   7.661 -13.183  1.00  0.00    -0.387 OA
ATOM     58  H   UNL     1      -2.429   7.711 -12.827  1.00  0.00    +0.211 HD
ENDBRANCH  51  57
ENDBRANCH  47  51
ENDBRANCH  46  47
ENDBRANCH  41  46
ENDBRANCH   1  36
TORSDOF 24
ENDMDL
MODEL 3
REMARK VINA RESULT:    -8.522      1.666      2.745
REMARK INTER + INTRA:         -20.320
REMARK INTER:                 -17.836
REMARK INTRA:                  -2.484
REMARK UNBOUND:                -2.830
REMARK SMILES O=C[C@@H](O)[C@@H](O)[C@H](CO)O[C@H]1OC[C@@H](O[C@@H]2OC[C@H](O[C@H]3OC[C@H](O[C@H]4OC[C@H](O)[C@H](O)[C@@H]4O)[C@@H](O)[C@H]3O)[C@H](O)[C@@H]2O)[C@@H](O)[C@H]1O
REMARK SMILES IDX 15 1 16 2 19 3 18 4 39 5 17 6 41 7 20 8 21 9 24 10 23 11
REMARK SMILES IDX 35 12 22 13 37 14 25 15 26 16 28 17 29 18 27 19 31 20 33 21
REMARK SMILES IDX 30 22 32 24 34 26 36 28 38 30 40 32 42 34 14 36 13 37 43 38
REMARK SMILES IDX 12 39 45 40 11 41 44 42 46 44 10 46 7 47 8 48 9 49 5 51 3 52
REMARK SMILES IDX 2 53 1 54 4 55 6 57
REMARK H PARENT 30 23 32 25 34 27 36 29 38 31 40 33 42 35 44 43 46 45 9 50
REMARK H PARENT 4 56 6 58
ROOT
ATOM      1  O   UNL     1       5.219   4.648  -9.335  1.00  0.00    -0.341 OA
ENDROOT
BRANCH   1   2
ATOM      2  C   UNL     1       6.137   5.424  -8.559  1.00  0.00    +0.282 C 
ATOM      3  C   UNL     1       8.951   5.122  -7.671  1.00  0.00    +0.179 C 
ATOM      4  C   UNL     1       8.430   5.015  -9.113  1.00  0.00    +0.198 C 
ATOM      5  C   UNL     1       7.773   5.260  -6.676  1.00  0.00    +0.179 C 
ATOM      6  O   UNL     1       7.282   5.834  -9.317  1.00  0.00    -0.347 OA
ATOM      7  C   UNL     1       6.487   4.667  -7.252  1.00  0.00    +0.202 C 
BRANCH   3   8
ATOM      8  O   UNL     1       9.730   3.978  -7.284  1.00  0.00    -0.341 OA
BRANCH   8   9
ATOM      9  C   UNL     1      10.152   3.151  -8.375  1.00  0.00    +0.282 C 
ATOM     10  C   UNL     1      12.241   2.368  -6.730  1.00  0.00    +0.179 C 
ATOM     11  C   UNL     1      12.533   2.819  -8.166  1.00  0.00    +0.198 C 
ATOM     12  C   UNL     1      10.997   1.457  -6.706  1.00  0.00    +0.179 C 
ATOM     13  O   UNL     1      11.463   3.522  -8.803  1.00  0.00    -0.347 OA
ATOM     14  C   UNL     1      10.102   1.671  -7.940  1.00  0.00    +0.202 C 
BRANCH  10  15
ATOM     15  O   UNL     1      13.423   1.726  -6.229  1.00  0.00    -0.341 OA
BRANCH  15  16
ATOM     16  C   UNL     1      13.881   2.255  -4.978  1.00  0.00    +0.282 C 
ATOM     17  C   UNL     1      13.198   3.738  -3.257  1.00  0.00    +0.198 C 
ATOM     18  C   UNL     1      12.780   2.638  -2.276  1.00  0.00    +0.171 C 
ATOM     19  O   UNL     1      12.996   3.320  -4.603  1.00  0.00    -0.347 OA
ATOM     20  C   UNL     1      12.690   1.269  -2.974  1.00  0.00    +0.179 C 
ATOM     21  C   UNL     1      13.863   1.099  -3.943  1.00  0.00    +0.202 C 
BRANCH  18  22
ATOM     22  O   UNL     1      13.720   2.555  -1.191  1.00  0.00    -0.388 OA
ATOM     23  H   UNL     1      14.477   3.128  -1.439  1.00  0.00    +0.211 HD
ENDBRANCH  18  22
BRANCH  20  24
ATOM     24  O   UNL     1      12.733   0.215  -1.995  1.00  0.00    -0.387 OA
ATOM     25  H   UNL     1      13.397   0.493  -1.328  1.00  0.00    +0.211 HD
ENDBRANCH  20  24
BRANCH  21  26
ATOM     26  O   UNL     1      15.079   1.100  -3.157  1.00  0.00    -0.385 OA
ATOM     27  H   UNL     1      15.123   2.005  -2.785  1.00  0.00    +0.211 HD
ENDBRANCH  21  26
ENDBRANCH  15  16
ENDBRANCH  10  15
BRANCH  12  28
ATOM     28  O   UNL     1      10.247   1.719  -5.501  1.00  0.00    -0.387 OA
ATOM     29  H   UNL     1      10.908   1.780  -4.780  1.00  0.00    +0.211 HD
ENDBRANCH  12  28
BRANCH  14  30
ATOM     30  O   UNL     1       8.767   1.237  -7.642  1.00  0.00    -0.385 OA
ATOM     31  H   UNL     1       8.836   0.386  -7.172  1.00  0.00    +0.211 HD
ENDBRANCH  14  30
ENDBRANCH   8   9
ENDBRANCH   3   8
BRANCH   5  32
ATOM     32  O   UNL     1       8.079   4.621  -5.427  1.00  0.00    -0.387 OA
ATOM     33  H   UNL     1       7.222   4.532  -4.957  1.00  0.00    +0.211 HD
ENDBRANCH   5  32
BRANCH   7  34
ATOM     34  O   UNL     1       6.689   3.259  -7.490  1.00  0.00    -0.385 OA
ATOM     35  H   UNL     1       7.478   3.017  -6.969  1.00  0.00    +0.211 HD
ENDBRANCH   7  34
ENDBRANCH   1   2
BRANCH   1  36
ATOM     36  C   UNL     1       4.083   5.387  -9.788  1.00  0.00    +0.179 C 
ATOM     37  C   UNL     1       4.273   6.878  -9.510  1.00  0.00    +0.198 C 
ATOM     38  C   UNL     1       2.816   4.886  -9.064  1.00  0.00    +0.179 C 
ATOM     39  O   UNL     1       3.203   7.676 -10.028  1.00  0.00    -0.347 OA
ATOM     40  C   UNL     1       1.782   6.006  -8.860  1.00  0.00    +0.202 C 
ATOM     41  C   UNL     1       1.911   7.053  -9.988  1.00  0.00    +0.282 C 
BRANCH  38  42
ATOM     42  O   UNL     1       3.134   4.326  -7.773  1.00  0.00    -0.387 OA
ATOM     43  H   UNL     1       3.698   3.542  -7.956  1.00  0.00    +0.211 HD
ENDBRANCH  38  42
BRANCH  40  44
ATOM     44  O   UNL     1       2.000   6.615  -7.569  1.00  0.00    -0.385 OA
ATOM     45  H   UNL     1       2.966   6.784  -7.538  1.00  0.00    +0.211 HD
ENDBRANCH  40  44
BRANCH  41  46
ATOM     46  O   UNL     1       0.899   8.045  -9.820  1.00  0.00    -0.341 OA
BRANCH  46  47
ATOM     47  C   UNL     1      -0.333   7.755 -10.500  1.00  0.00    +0.178 C 
BRANCH  47  48
ATOM     48  C   UNL     1      -1.481   7.900  -9.494  1.00  0.00    +0.191 C 
BRANCH  48  49
ATOM     49  O   UNL     1      -1.081   7.469  -8.200  1.00  0.00    -0.394 OA
ATOM     50  H   UNL     1      -0.319   6.875  -8.327  1.00  0.00    +0.210 HD
ENDBRANCH  48  49
ENDBRANCH  47  48
BRANCH  47  51
ATOM     51  C   UNL     1      -0.470   8.665 -11.750  1.00  0.00    +0.181 C 
BRANCH  51  52
ATOM     52  C   UNL     1      -1.874   8.686 -12.378  1.00  0.00    +0.209 C 
BRANCH  52  53
ATOM     53  C   UNL     1      -1.870   9.604 -13.594  1.00  0.00    +0.258 C 
ATOM     54  O   UNL     1      -0.842  10.136 -14.015  1.00  0.00    -0.300 OA
ENDBRANCH  52  53
BRANCH  52  55
ATOM     55  O   UNL     1      -2.296   7.388 -12.796  1.00  0.00    -0.383 OA
ATOM     56  H   UNL     1      -2.641   6.946 -11.992  1.00  0.00    +0.211 HD
ENDBRANCH  52  55
ENDBRANCH  51  52
BRANCH  51  57
ATOM     57  O   UNL     1      -0.121  10.019 -11.385  1.00  0.00    -0.387 OA
ATOM     58  H   UNL     1      -0.559  10.613 -12.036  1.00  0.00    +0.211 HD
ENDBRANCH  51  57
ENDBRANCH  47  51
ENDBRANCH  46  47
ENDBRANCH  41  46
ENDBRANCH   1  36
TORSDOF 24
ENDMDL
MODEL 4
REMARK VINA RESULT:    -8.343      2.090      3.766
REMARK INTER + INTRA:         -19.953
REMARK INTER:                 -17.666
REMARK INTRA:                  -2.287
REMARK UNBOUND:                -2.830
REMARK SMILES O=C[C@@H](O)[C@@H](O)[C@H](CO)O[C@H]1OC[C@@H](O[C@@H]2OC[C@H](O[C@H]3OC[C@H](O[C@H]4OC[C@H](O)[C@H](O)[C@@H]4O)[C@@H](O)[C@H]3O)[C@H](O)[C@@H]2O)[C@@H](O)[C@H]1O
REMARK SMILES IDX 15 1 16 2 19 3 18 4 39 5 17 6 41 7 20 8 21 9 24 10 23 11
REMARK SMILES IDX 35 12 22 13 37 14 25 15 26 16 28 17 29 18 27 19 31 20 33 21
REMARK SMILES IDX 30 22 32 24 34 26 36 28 38 30 40 32 42 34 14 36 13 37 43 38
REMARK SMILES IDX 12 39 45 40 11 41 44 42 46 44 10 46 7 47 8 48 9 49 5 51 3 52
REMARK SMILES IDX 2 53 1 54 4 55 6 57
REMARK H PARENT 30 23 32 25 34 27 36 29 38 31 40 33 42 35 44 43 46 45 9 50
REMARK H PARENT 4 56 6 58
ROOT
ATOM      1  O   UNL     1       2.106   7.074  -9.569  1.00  0.00    -0.341 OA
ENDROOT
BRANCH   1   2
ATOM      2  C   UNL     1       2.697   6.045  -8.769  1.00  0.00    +0.282 C 
ATOM      3  C   UNL     1       5.398   5.496  -7.673  1.00  0.00    +0.179 C 
ATOM      4  C   UNL     1       4.590   6.793  -7.508  1.00  0.00    +0.198 C 
ATOM      5  C   UNL     1       4.679   4.526  -8.641  1.00  0.00    +0.179 C 
ATOM      6  O   UNL     1       3.188   6.541  -7.517  1.00  0.00    -0.347 OA
ATOM      7  C   UNL     1       3.759   5.282  -9.602  1.00  0.00    +0.202 C 
BRANCH   3   8
ATOM      8  O   UNL     1       6.721   5.736  -8.182  1.00  0.00    -0.341 OA
BRANCH   8   9
ATOM      9  C   UNL     1       7.705   5.995  -7.174  1.00  0.00    +0.282 C 
ATOM     10  C   UNL     1       8.409   3.327  -7.440  1.00  0.00    +0.179 C 
ATOM     11  C   UNL     1       8.165   3.913  -6.044  1.00  0.00    +0.198 C 
ATOM     12  C   UNL     1       9.226   4.320  -8.292  1.00  0.00    +0.179 C 
ATOM     13  O   UNL     1       7.479   5.168  -6.033  1.00  0.00    -0.347 OA
ATOM     14  C   UNL     1       9.111   5.762  -7.766  1.00  0.00    +0.202 C 
BRANCH  10  15
ATOM     15  O   UNL     1       9.059   2.059  -7.270  1.00  0.00    -0.341 OA
BRANCH  15  16
ATOM     16  C   UNL     1      10.083   2.066  -6.267  1.00  0.00    +0.282 C 
ATOM     17  C   UNL     1      10.961   0.703  -4.535  1.00  0.00    +0.198 C 
ATOM     18  C   UNL     1      12.183   0.230  -5.329  1.00  0.00    +0.171 C 
ATOM     19  O   UNL     1       9.856   0.945  -5.402  1.00  0.00    -0.347 OA
ATOM     20  C   UNL     1      12.044   0.566  -6.824  1.00  0.00    +0.179 C 
ATOM     21  C   UNL     1      11.452   1.967  -6.992  1.00  0.00    +0.202 C 
BRANCH  18  22
ATOM     22  O   UNL     1      13.378   0.843  -4.815  1.00  0.00    -0.388 OA
ATOM     23  H   UNL     1      13.272   0.875  -3.840  1.00  0.00    +0.211 HD
ENDBRANCH  18  22
BRANCH  20  24
ATOM     24  O   UNL     1      13.336   0.523  -7.459  1.00  0.00    -0.387 OA
ATOM     25  H   UNL     1      13.930   1.066  -6.899  1.00  0.00    +0.211 HD
ENDBRANCH  20  24
BRANCH  21  26
ATOM     26  O   UNL     1      12.397   2.908  -6.428  1.00  0.00    -0.385 OA
ATOM     27  H   UNL     1      13.268   2.588  -6.740  1.00  0.00    +0.211 HD
ENDBRANCH  21  26
ENDBRANCH  15  16
ENDBRANCH  10  15
BRANCH  12  28
ATOM     28  O   UNL     1       8.763   4.255  -9.658  1.00  0.00    -0.387 OA
ATOM     29  H   UNL     1       9.500   4.592 -10.209  1.00  0.00    +0.211 HD
ENDBRANCH  12  28
BRANCH  14  30
ATOM     30  O   UNL     1       9.415   6.682  -8.824  1.00  0.00    -0.385 OA
ATOM     31  H   UNL     1      10.187   6.329  -9.304  1.00  0.00    +0.211 HD
ENDBRANCH  14  30
ENDBRANCH   8   9
ENDBRANCH   3   8
BRANCH   5  32
ATOM     32  O   UNL     1       5.628   3.754  -9.392  1.00  0.00    -0.387 OA
ATOM     33  H   UNL     1       6.355   3.546  -8.767  1.00  0.00    +0.211 HD
ENDBRANCH   5  32
BRANCH   7  34
ATOM     34  O   UNL     1       4.556   6.179 -10.401  1.00  0.00    -0.385 OA
ATOM     35  H   UNL     1       5.034   6.742  -9.763  1.00  0.00    +0.211 HD
ENDBRANCH   7  34
ENDBRANCH   1   2
BRANCH   1  36
ATOM     36  C   UNL     1       0.778   6.773 -10.001  1.00  0.00    +0.179 C 
ATOM     37  C   UNL     1       0.116   8.017 -10.592  1.00  0.00    +0.198 C 
ATOM     38  C   UNL     1      -0.054   6.266  -8.805  1.00  0.00    +0.179 C 
ATOM     39  O   UNL     1      -1.186   7.748 -11.126  1.00  0.00    -0.347 OA
ATOM     40  C   UNL     1      -1.539   6.648  -8.927  1.00  0.00    +0.202 C 
ATOM     41  C   UNL     1      -1.935   6.752 -10.415  1.00  0.00    +0.282 C 
BRANCH  38  42
ATOM     42  O   UNL     1       0.445   6.790  -7.557  1.00  0.00    -0.387 OA
ATOM     43  H   UNL     1       0.056   6.222  -6.856  1.00  0.00    +0.211 HD
ENDBRANCH  38  42
BRANCH  40  44
ATOM     44  O   UNL     1      -1.756   7.905  -8.250  1.00  0.00    -0.385 OA
ATOM     45  H   UNL     1      -2.206   8.467  -8.916  1.00  0.00    +0.211 HD
ENDBRANCH  40  44
BRANCH  41  46
ATOM     46  O   UNL     1      -3.330   7.038 -10.507  1.00  0.00    -0.341 OA
BRANCH  46  47
ATOM     47  C   UNL     1      -3.637   8.303 -11.116  1.00  0.00    +0.178 C 
BRANCH  47  48
ATOM     48  C   UNL     1      -4.339   8.032 -12.451  1.00  0.00    +0.191 C 
BRANCH  48  49
ATOM     49  O   UNL     1      -5.479   7.203 -12.267  1.00  0.00    -0.394 OA
ATOM     50  H   UNL     1      -5.987   7.239 -13.098  1.00  0.00    +0.210 HD
ENDBRANCH  48  49
ENDBRANCH  47  48
BRANCH  47  51
ATOM     51  C   UNL     1      -4.464   9.173 -10.132  1.00  0.00    +0.181 C 
BRANCH  51  52
ATOM     52  C   UNL     1      -3.754  10.452  -9.654  1.00  0.00    +0.209 C 
BRANCH  52  53
ATOM     53  C   UNL     1      -3.961  10.614  -8.154  1.00  0.00    +0.258 C 
ATOM     54  O   UNL     1      -4.715   9.884  -7.509  1.00  0.00    -0.300 OA
ENDBRANCH  52  53
BRANCH  52  55
ATOM     55  O   UNL     1      -2.351  10.418  -9.914  1.00  0.00    -0.383 OA
ATOM     56  H   UNL     1      -2.257  10.111 -10.840  1.00  0.00    +0.211 HD
ENDBRANCH  52  55
ENDBRANCH  51  52
BRANCH  51  57
ATOM     57  O   UNL     1      -5.701   9.559 -10.772  1.00  0.00    -0.387 OA
ATOM     58  H   UNL     1      -5.574   9.434 -11.739  1.00  0.00    +0.211 HD
ENDBRANCH  51  57
ENDBRANCH  47  51
ENDBRANCH  46  47
ENDBRANCH  41  46
ENDBRANCH   1  36
TORSDOF 24
ENDMDL
MODEL 5
REMARK VINA RESULT:    -8.285      2.502     13.995
REMARK INTER + INTRA:         -19.834
REMARK INTER:                 -18.044
REMARK INTRA:                  -1.790
REMARK UNBOUND:                -2.830
REMARK SMILES O=C[C@@H](O)[C@@H](O)[C@H](CO)O[C@H]1OC[C@@H](O[C@@H]2OC[C@H](O[C@H]3OC[C@H](O[C@H]4OC[C@H](O)[C@H](O)[C@@H]4O)[C@@H](O)[C@H]3O)[C@H](O)[C@@H]2O)[C@@H](O)[C@H]1O
REMARK SMILES IDX 15 1 16 2 19 3 18 4 39 5 17 6 41 7 20 8 21 9 24 10 23 11
REMARK SMILES IDX 35 12 22 13 37 14 25 15 26 16 28 17 29 18 27 19 31 20 33 21
REMARK SMILES IDX 30 22 32 24 34 26 36 28 38 30 40 32 42 34 14 36 13 37 43 38
REMARK SMILES IDX 12 39 45 40 11 41 44 42 46 44 10 46 7 47 8 48 9 49 5 51 3 52
REMARK SMILES IDX 2 53 1 54 4 55 6 57
REMARK H PARENT 30 23 32 25 34 27 36 29 38 31 40 33 42 35 44 43 46 45 9 50
REMARK H PARENT 4 56 6 58
ROOT
ATOM      1  O   UNL     1       4.057   5.859  -9.352  1.00  0.00    -0.341 OA
ENDROOT
BRANCH   1   2
ATOM      2  C   UNL     1       3.251   6.939  -8.874  1.00  0.00    +0.282 C 
ATOM      3  C   UNL     1       0.353   7.572  -8.838  1.00  0.00    +0.179 C 
ATOM      4  C   UNL     1       1.015   6.283  -8.324  1.00  0.00    +0.198 C 
ATOM      5  C   UNL     1       1.394   8.475  -9.542  1.00  0.00    +0.179 C 
ATOM      6  O   UNL     1       2.336   6.526  -7.850  1.00  0.00    -0.347 OA
ATOM      7  C   UNL     1       2.573   7.655 -10.070  1.00  0.00    +0.202 C 
BRANCH   3   8
ATOM      8  O   UNL     1      -0.711   7.308  -9.767  1.00  0.00    -0.341 OA
BRANCH   8   9
ATOM      9  C   UNL     1      -1.816   6.584  -9.214  1.00  0.00    +0.282 C 
ATOM     10  C   UNL     1      -3.335   8.830  -9.791  1.00  0.00    +0.179 C 
ATOM     11  C   UNL     1      -3.414   8.197  -8.397  1.00  0.00    +0.198 C 
ATOM     12  C   UNL     1      -3.337   7.728 -10.871  1.00  0.00    +0.179 C 
ATOM     13  O   UNL     1      -2.357   7.283  -8.093  1.00  0.00    -0.347 OA
ATOM     14  C   UNL     1      -2.882   6.369 -10.309  1.00  0.00    +0.202 C 
BRANCH  10  15
ATOM     15  O   UNL     1      -4.433   9.746  -9.914  1.00  0.00    -0.341 OA
BRANCH  15  16
ATOM     16  C   UNL     1      -4.813  10.360  -8.677  1.00  0.00    +0.282 C 
ATOM     17  C   UNL     1      -5.563  12.441  -7.819  1.00  0.00    +0.198 C 
ATOM     18  C   UNL     1      -7.033  12.025  -7.697  1.00  0.00    +0.171 C 
ATOM     19  O   UNL     1      -4.936  11.770  -8.908  1.00  0.00    -0.347 OA
ATOM     20  C   UNL     1      -7.309  10.714  -8.455  1.00  0.00    +0.179 C 
ATOM     21  C   UNL     1      -6.159   9.729  -8.231  1.00  0.00    +0.202 C 
BRANCH  18  22
ATOM     22  O   UNL     1      -7.389  11.857  -6.315  1.00  0.00    -0.388 OA
ATOM     23  H   UNL     1      -6.885  11.079  -5.994  1.00  0.00    +0.211 HD
ENDBRANCH  18  22
BRANCH  20  24
ATOM     24  O   UNL     1      -8.533  10.122  -7.981  1.00  0.00    -0.387 OA
ATOM     25  H   UNL     1      -8.408   9.975  -7.020  1.00  0.00    +0.211 HD
ENDBRANCH  20  24
BRANCH  21  26
ATOM     26  O   UNL     1      -6.130   9.410  -6.819  1.00  0.00    -0.385 OA
ATOM     27  H   UNL     1      -6.025  10.279  -6.380  1.00  0.00    +0.211 HD
ENDBRANCH  21  26
ENDBRANCH  15  16
ENDBRANCH  10  15
BRANCH  12  28
ATOM     28  O   UNL     1      -2.470   8.131 -11.952  1.00  0.00    -0.387 OA
ATOM     29  H   UNL     1      -2.416   7.361 -12.555  1.00  0.00    +0.211 HD
ENDBRANCH  12  28
BRANCH  14  30
ATOM     30  O   UNL     1      -2.401   5.546 -11.381  1.00  0.00    -0.385 OA
ATOM     31  H   UNL     1      -2.208   4.666 -11.008  1.00  0.00    +0.211 HD
ENDBRANCH  14  30
ENDBRANCH   8   9
ENDBRANCH   3   8
BRANCH   5  32
ATOM     32  O   UNL     1       0.793   9.203 -10.623  1.00  0.00    -0.387 OA
ATOM     33  H   UNL     1       1.458   9.873 -10.893  1.00  0.00    +0.211 HD
ENDBRANCH   5  32
BRANCH   7  34
ATOM     34  O   UNL     1       2.085   6.714 -11.047  1.00  0.00    -0.385 OA
ATOM     35  H   UNL     1       1.341   6.252 -10.616  1.00  0.00    +0.211 HD
ENDBRANCH   7  34
ENDBRANCH   1   2
BRANCH   1  36
ATOM     36  C   UNL     1       5.446   6.001  -9.049  1.00  0.00    +0.179 C 
ATOM     37  C   UNL     1       6.285   5.110  -9.964  1.00  0.00    +0.198 C 
ATOM     38  C   UNL     1       5.698   5.609  -7.578  1.00  0.00    +0.179 C 
ATOM     39  O   UNL     1       7.692   5.284  -9.764  1.00  0.00    -0.347 OA
ATOM     40  C   UNL     1       7.091   4.991  -7.372  1.00  0.00    +0.202 C 
ATOM     41  C   UNL     1       8.079   5.563  -8.410  1.00  0.00    +0.282 C 
BRANCH  38  42
ATOM     42  O   UNL     1       4.713   4.665  -7.108  1.00  0.00    -0.387 OA
ATOM     43  H   UNL     1       5.090   3.777  -7.289  1.00  0.00    +0.211 HD
ENDBRANCH  38  42
BRANCH  40  44
ATOM     44  O   UNL     1       6.990   3.556  -7.497  1.00  0.00    -0.385 OA
ATOM     45  H   UNL     1       6.224   3.416  -8.093  1.00  0.00    +0.211 HD
ENDBRANCH  40  44
BRANCH  41  46
ATOM     46  O   UNL     1       9.380   5.031  -8.158  1.00  0.00    -0.341 OA
BRANCH  46  47
ATOM     47  C   UNL     1       9.623   3.751  -8.765  1.00  0.00    +0.178 C 
BRANCH  47  48
ATOM     48  C   UNL     1      10.633   3.946  -9.901  1.00  0.00    +0.191 C 
BRANCH  48  49
ATOM     49  O   UNL     1      10.608   5.284 -10.381  1.00  0.00    -0.394 OA
ATOM     50  H   UNL     1      11.526   5.609 -10.348  1.00  0.00    +0.210 HD
ENDBRANCH  48  49
ENDBRANCH  47  48
BRANCH  47  51
ATOM     51  C   UNL     1      10.078   2.736  -7.683  1.00  0.00    +0.181 C 
BRANCH  51  52
ATOM     52  C   UNL     1      10.276   3.336  -6.281  1.00  0.00    +0.209 C 
BRANCH  52  53
ATOM     53  C   UNL     1       9.507   2.506  -5.262  1.00  0.00    +0.258 C 
ATOM     54  O   UNL     1       8.344   2.761  -4.945  1.00  0.00    -0.300 OA
ENDBRANCH  52  53
BRANCH  52  55
ATOM     55  O   UNL     1      11.650   3.363  -5.895  1.00  0.00    -0.383 OA
ATOM     56  H   UNL     1      11.674   3.052  -4.967  1.00  0.00    +0.211 HD
ENDBRANCH  52  55
ENDBRANCH  51  52
BRANCH  51  57
ATOM     57  O   UNL     1       9.094   1.682  -7.585  1.00  0.00    -0.387 OA
ATOM     58  H   UNL     1       8.349   2.035  -7.050  1.00  0.00    +0.211 HD
ENDBRANCH  51  57
ENDBRANCH  47  51
ENDBRANCH  46  47
ENDBRANCH  41  46
ENDBRANCH   1  36
TORSDOF 24
ENDMDL
MODEL 6
REMARK VINA RESULT:    -7.713      3.718      9.134
REMARK INTER + INTRA:         -18.659
REMARK INTER:                 -16.272
REMARK INTRA:                  -2.388
REMARK UNBOUND:                -2.830
REMARK SMILES O=C[C@@H](O)[C@@H](O)[C@H](CO)O[C@H]1OC[C@@H](O[C@@H]2OC[C@H](O[C@H]3OC[C@H](O[C@H]4OC[C@H](O)[C@H](O)[C@@H]4O)[C@@H](O)[C@H]3O)[C@H](O)[C@@H]2O)[C@@H](O)[C@H]1O
REMARK SMILES IDX 15 1 16 2 19 3 18 4 39 5 17 6 41 7 20 8 21 9 24 10 23 11
REMARK SMILES IDX 35 12 22 13 37 14 25 15 26 16 28 17 29 18 27 19 31 20 33 21
REMARK SMILES IDX 30 22 32 24 34 26 36 28 38 30 40 32 42 34 14 36 13 37 43 38
REMARK SMILES IDX 12 39 45 40 11 41 44 42 46 44 10 46 7 47 8 48 9 49 5 51 3 52
REMARK SMILES IDX 2 53 1 54 4 55 6 57
REMARK H PARENT 30 23 32 25 34 27 36 29 38 31 40 33 42 35 44 43 46 45 9 50
REMARK H PARENT 4 56 6 58
ROOT
ATOM      1  O   UNL     1      -3.081   9.866  -9.287  1.00  0.00    -0.341 OA
ENDROOT
BRANCH   1   2
ATOM      2  C   UNL     1      -2.808   8.825 -10.229  1.00  0.00    +0.282 C 
ATOM      3  C   UNL     1      -0.759   6.699 -10.509  1.00  0.00    +0.179 C 
ATOM      4  C   UNL     1      -1.638   6.966  -9.277  1.00  0.00    +0.198 C 
ATOM      5  C   UNL     1      -0.965   7.802 -11.574  1.00  0.00    +0.179 C 
ATOM      6  O   UNL     1      -2.898   7.521  -9.643  1.00  0.00    -0.347 OA
ATOM      7  C   UNL     1      -1.457   9.103 -10.937  1.00  0.00    +0.202 C 
BRANCH   3   8
ATOM      8  O   UNL     1       0.640   6.647 -10.183  1.00  0.00    -0.341 OA
BRANCH   8   9
ATOM      9  C   UNL     1       0.920   6.259  -8.833  1.00  0.00    +0.282 C 
ATOM     10  C   UNL     1       3.538   5.912  -9.674  1.00  0.00    +0.179 C 
ATOM     11  C   UNL     1       2.844   4.804  -8.872  1.00  0.00    +0.198 C 
ATOM     12  C   UNL     1       3.212   7.289  -9.060  1.00  0.00    +0.179 C 
ATOM     13  O   UNL     1       1.421   4.923  -8.793  1.00  0.00    -0.347 OA
ATOM     14  C   UNL     1       1.925   7.254  -8.217  1.00  0.00    +0.202 C 
BRANCH  10  15
ATOM     15  O   UNL     1       4.943   5.618  -9.692  1.00  0.00    -0.341 OA
BRANCH  15  16
ATOM     16  C   UNL     1       5.511   5.437  -8.389  1.00  0.00    +0.282 C 
ATOM     17  C   UNL     1       6.797   3.873  -7.153  1.00  0.00    +0.198 C 
ATOM     18  C   UNL     1       8.116   4.643  -7.273  1.00  0.00    +0.171 C 
ATOM     19  O   UNL     1       5.980   4.084  -8.301  1.00  0.00    -0.347 OA
ATOM     20  C   UNL     1       8.022   5.753  -8.335  1.00  0.00    +0.179 C 
ATOM     21  C   UNL     1       6.668   6.459  -8.234  1.00  0.00    +0.202 C 
BRANCH  18  22
ATOM     22  O   UNL     1       8.468   5.227  -6.008  1.00  0.00    -0.388 OA
ATOM     23  H   UNL     1       8.494   6.198  -6.151  1.00  0.00    +0.211 HD
ENDBRANCH  18  22
BRANCH  20  24
ATOM     24  O   UNL     1       9.071   6.717  -8.132  1.00  0.00    -0.387 OA
ATOM     25  H   UNL     1       9.723   6.561  -8.848  1.00  0.00    +0.211 HD
ENDBRANCH  20  24
BRANCH  21  26
ATOM     26  O   UNL     1       6.610   7.102  -6.937  1.00  0.00    -0.385 OA
ATOM     27  H   UNL     1       7.544   7.132  -6.644  1.00  0.00    +0.211 HD
ENDBRANCH  21  26
ENDBRANCH  15  16
ENDBRANCH  10  15
BRANCH  12  28
ATOM     28  O   UNL     1       3.080   8.256 -10.124  1.00  0.00    -0.387 OA
ATOM     29  H   UNL     1       2.915   9.117  -9.687  1.00  0.00    +0.211 HD
ENDBRANCH  12  28
BRANCH  14  30
ATOM     30  O   UNL     1       1.385   8.580  -8.115  1.00  0.00    -0.385 OA
ATOM     31  H   UNL     1       2.079   9.148  -7.732  1.00  0.00    +0.211 HD
ENDBRANCH  14  30
ENDBRANCH   8   9
ENDBRANCH   3   8
BRANCH   5  32
ATOM     32  O   UNL     1       0.251   8.050 -12.296  1.00  0.00    -0.387 OA
ATOM     33  H   UNL     1       0.254   7.408 -13.039  1.00  0.00    +0.211 HD
ENDBRANCH   5  32
BRANCH   7  34
ATOM     34  O   UNL     1      -0.457   9.576 -10.012  1.00  0.00    -0.385 OA
ATOM     35  H   UNL     1       0.025  10.280 -10.486  1.00  0.00    +0.211 HD
ENDBRANCH   7  34
ENDBRANCH   1   2
BRANCH   1  36
ATOM     36  C   UNL     1      -4.470  10.024  -8.993  1.00  0.00    +0.179 C 
ATOM     37  C   UNL     1      -5.284  10.081 -10.286  1.00  0.00    +0.198 C 
ATOM     38  C   UNL     1      -4.686  11.325  -8.192  1.00  0.00    +0.179 C 
ATOM     39  O   UNL     1      -6.695  10.146 -10.046  1.00  0.00    -0.347 OA
ATOM     40  C   UNL     1      -6.050  11.971  -8.489  1.00  0.00    +0.202 C 
ATOM     41  C   UNL     1      -7.075  10.882  -8.874  1.00  0.00    +0.282 C 
BRANCH  38  42
ATOM     42  O   UNL     1      -3.657  12.295  -8.476  1.00  0.00    -0.387 OA
ATOM     43  H   UNL     1      -4.032  13.164  -8.211  1.00  0.00    +0.211 HD
ENDBRANCH  38  42
BRANCH  40  44
ATOM     44  O   UNL     1      -5.892  12.927  -9.559  1.00  0.00    -0.385 OA
ATOM     45  H   UNL     1      -6.372  13.724  -9.248  1.00  0.00    +0.211 HD
ENDBRANCH  40  44
BRANCH  41  46
ATOM     46  O   UNL     1      -8.349  11.493  -9.077  1.00  0.00    -0.341 OA
BRANCH  46  47
ATOM     47  C   UNL     1      -9.235  11.402  -7.950  1.00  0.00    +0.178 C 
BRANCH  47  48
ATOM     48  C   UNL     1      -9.100  12.689  -7.130  1.00  0.00    +0.191 C 
BRANCH  48  49
ATOM     49  O   UNL     1      -9.752  12.563  -5.873  1.00  0.00    -0.394 OA
ATOM     50  H   UNL     1     -10.120  13.440  -5.660  1.00  0.00    +0.210 HD
ENDBRANCH  48  49
ENDBRANCH  47  48
BRANCH  47  51
ATOM     51  C   UNL     1     -10.680  11.115  -8.441  1.00  0.00    +0.181 C 
BRANCH  51  52
ATOM     52  C   UNL     1     -11.400   9.983  -7.688  1.00  0.00    +0.209 C 
BRANCH  52  53
ATOM     53  C   UNL     1     -11.180   8.667  -8.423  1.00  0.00    +0.258 C 
ATOM     54  O   UNL     1     -10.810   8.621  -9.597  1.00  0.00    -0.300 OA
ENDBRANCH  52  53
BRANCH  52  55
ATOM     55  O   UNL     1     -10.922   9.836  -6.350  1.00  0.00    -0.383 OA
ATOM     56  H   UNL     1     -10.102  10.369  -6.299  1.00  0.00    +0.211 HD
ENDBRANCH  52  55
ENDBRANCH  51  52
BRANCH  51  57
ATOM     57  O   UNL     1     -11.469  12.317  -8.305  1.00  0.00    -0.387 OA
ATOM     58  H   UNL     1     -11.585  12.477  -7.342  1.00  0.00    +0.211 HD
ENDBRANCH  51  57
ENDBRANCH  47  51
ENDBRANCH  46  47
ENDBRANCH  41  46
ENDBRANCH   1  36
TORSDOF 24
ENDMDL
MODEL 7
REMARK VINA RESULT:    -7.602      3.040     14.306
REMARK INTER + INTRA:         -18.431
REMARK INTER:                 -16.502
REMARK INTRA:                  -1.929
REMARK UNBOUND:                -2.830
REMARK SMILES O=C[C@@H](O)[C@@H](O)[C@H](CO)O[C@H]1OC[C@@H](O[C@@H]2OC[C@H](O[C@H]3OC[C@H](O[C@H]4OC[C@H](O)[C@H](O)[C@@H]4O)[C@@H](O)[C@H]3O)[C@H](O)[C@@H]2O)[C@@H](O)[C@H]1O
REMARK SMILES IDX 15 1 16 2 19 3 18 4 39 5 17 6 41 7 20 8 21 9 24 10 23 11
REMARK SMILES IDX 35 12 22 13 37 14 25 15 26 16 28 17 29 18 27 19 31 20 33 21
REMARK SMILES IDX 30 22 32 24 34 26 36 28 38 30 40 32 42 34 14 36 13 37 43 38
REMARK SMILES IDX 12 39 45 40 11 41 44 42 46 44 10 46 7 47 8 48 9 49 5 51 3 52
REMARK SMILES IDX 2 53 1 54 4 55 6 57
REMARK H PARENT 30 23 32 25 34 27 36 29 38 31 40 33 42 35 44 43 46 45 9 50
REMARK H PARENT 4 56 6 58
ROOT
ATOM      1  O   UNL     1       4.178   5.540  -9.272  1.00  0.00    -0.341 OA
ENDROOT
BRANCH   1   2
ATOM      2  C   UNL     1       3.385   6.544  -8.632  1.00  0.00    +0.282 C 
ATOM      3  C   UNL     1       0.505   7.252  -8.568  1.00  0.00    +0.179 C 
ATOM      4  C   UNL     1       1.115   5.872  -8.274  1.00  0.00    +0.198 C 
ATOM      5  C   UNL     1       1.593   8.232  -9.070  1.00  0.00    +0.179 C 
ATOM      6  O   UNL     1       2.425   5.985  -7.726  1.00  0.00    -0.347 OA
ATOM      7  C   UNL     1       2.767   7.481  -9.701  1.00  0.00    +0.202 C 
BRANCH   3   8
ATOM      8  O   UNL     1      -0.533   7.191  -9.561  1.00  0.00    -0.341 OA
BRANCH   8   9
ATOM      9  C   UNL     1      -1.580   8.152  -9.382  1.00  0.00    +0.282 C 
ATOM     10  C   UNL     1      -2.685   7.099 -11.696  1.00  0.00    +0.179 C 
ATOM     11  C   UNL     1      -2.527   8.617 -11.553  1.00  0.00    +0.198 C 
ATOM     12  C   UNL     1      -3.206   6.497 -10.375  1.00  0.00    +0.179 C 
ATOM     13  O   UNL     1      -1.645   9.031 -10.505  1.00  0.00    -0.347 OA
ATOM     14  C   UNL     1      -2.918   7.412  -9.171  1.00  0.00    +0.202 C 
BRANCH  10  15
ATOM     15  O   UNL     1      -3.557   6.857 -12.811  1.00  0.00    -0.341 OA
BRANCH  15  16
ATOM     16  C   UNL     1      -4.320   8.005 -13.205  1.00  0.00    +0.282 C 
ATOM     17  C   UNL     1      -5.305   8.975 -15.132  1.00  0.00    +0.198 C 
ATOM     18  C   UNL     1      -6.734   8.534 -14.802  1.00  0.00    +0.171 C 
ATOM     19  O   UNL     1      -4.357   8.034 -14.638  1.00  0.00    -0.347 OA
ATOM     20  C   UNL     1      -6.750   7.481 -13.679  1.00  0.00    +0.179 C 
ATOM     21  C   UNL     1      -5.739   7.859 -12.594  1.00  0.00    +0.202 C 
BRANCH  18  22
ATOM     22  O   UNL     1      -7.524   9.666 -14.400  1.00  0.00    -0.388 OA
ATOM     23  H   UNL     1      -7.838   9.473 -13.491  1.00  0.00    +0.211 HD
ENDBRANCH  18  22
BRANCH  20  24
ATOM     24  O   UNL     1      -8.063   7.408 -13.093  1.00  0.00    -0.387 OA
ATOM     25  H   UNL     1      -8.135   6.512 -12.703  1.00  0.00    +0.211 HD
ENDBRANCH  20  24
BRANCH  21  26
ATOM     26  O   UNL     1      -6.175   9.112 -12.013  1.00  0.00    -0.385 OA
ATOM     27  H   UNL     1      -5.349   9.522 -11.683  1.00  0.00    +0.211 HD
ENDBRANCH  21  26
ENDBRANCH  15  16
ENDBRANCH  10  15
BRANCH  12  28
ATOM     28  O   UNL     1      -2.590   5.207 -10.173  1.00  0.00    -0.387 OA
ATOM     29  H   UNL     1      -2.498   4.810 -11.064  1.00  0.00    +0.211 HD
ENDBRANCH  12  28
BRANCH  14  30
ATOM     30  O   UNL     1      -2.923   6.632  -7.967  1.00  0.00    -0.385 OA
ATOM     31  H   UNL     1      -2.273   5.915  -8.082  1.00  0.00    +0.211 HD
ENDBRANCH  14  30
ENDBRANCH   8   9
ENDBRANCH   3   8
BRANCH   5  32
ATOM     32  O   UNL     1       1.049   9.159 -10.021  1.00  0.00    -0.387 OA
ATOM     33  H   UNL     1       0.683   8.610 -10.748  1.00  0.00    +0.211 HD
ENDBRANCH   5  32
BRANCH   7  34
ATOM     34  O   UNL     1       2.289   6.745 -10.844  1.00  0.00    -0.385 OA
ATOM     35  H   UNL     1       1.384   7.074 -11.007  1.00  0.00    +0.211 HD
ENDBRANCH   7  34
ENDBRANCH   1   2
BRANCH   1  36
ATOM     36  C   UNL     1       5.582   5.694  -9.054  1.00  0.00    +0.179 C 
ATOM     37  C   UNL     1       6.369   4.784  -9.997  1.00  0.00    +0.198 C 
ATOM     38  C   UNL     1       5.922   5.336  -7.592  1.00  0.00    +0.179 C 
ATOM     39  O   UNL     1       7.786   4.967  -9.884  1.00  0.00    -0.347 OA
ATOM     40  C   UNL     1       7.328   4.727  -7.454  1.00  0.00    +0.202 C 
ATOM     41  C   UNL     1       8.250   5.278  -8.562  1.00  0.00    +0.282 C 
BRANCH  38  42
ATOM     42  O   UNL     1       4.970   4.400  -7.044  1.00  0.00    -0.387 OA
ATOM     43  H   UNL     1       4.107   4.631  -7.453  1.00  0.00    +0.211 HD
ENDBRANCH  38  42
BRANCH  40  44
ATOM     44  O   UNL     1       7.225   3.289  -7.541  1.00  0.00    -0.385 OA
ATOM     45  H   UNL     1       7.314   3.094  -8.498  1.00  0.00    +0.211 HD
ENDBRANCH  40  44
BRANCH  41  46
ATOM     46  O   UNL     1       9.565   4.755  -8.375  1.00  0.00    -0.341 OA
BRANCH  46  47
ATOM     47  C   UNL     1       9.825   3.536  -9.090  1.00  0.00    +0.178 C 
BRANCH  47  48
ATOM     48  C   UNL     1      10.813   3.846 -10.220  1.00  0.00    +0.191 C 
BRANCH  48  49
ATOM     49  O   UNL     1      10.940   5.249 -10.415  1.00  0.00    -0.394 OA
ATOM     50  H   UNL     1      10.518   5.450 -11.270  1.00  0.00    +0.210 HD
ENDBRANCH  48  49
ENDBRANCH  47  48
BRANCH  47  51
ATOM     51  C   UNL     1      10.318   2.444  -8.103  1.00  0.00    +0.181 C 
BRANCH  51  52
ATOM     52  C   UNL     1      10.705   2.965  -6.709  1.00  0.00    +0.209 C 
BRANCH  52  53
ATOM     53  C   UNL     1      10.110   2.052  -5.644  1.00  0.00    +0.258 C 
ATOM     54  O   UNL     1       8.957   2.185  -5.232  1.00  0.00    -0.300 OA
ENDBRANCH  52  53
BRANCH  52  55
ATOM     55  O   UNL     1      12.120   3.009  -6.525  1.00  0.00    -0.383 OA
ATOM     56  H   UNL     1      12.471   3.539  -7.270  1.00  0.00    +0.211 HD
ENDBRANCH  52  55
ENDBRANCH  51  52
BRANCH  51  57
ATOM     57  O   UNL     1       9.276   1.455  -7.939  1.00  0.00    -0.387 OA
ATOM     58  H   UNL     1       9.124   1.051  -8.823  1.00  0.00    +0.211 HD
ENDBRANCH  51  57
ENDBRANCH  47  51
ENDBRANCH  46  47
ENDBRANCH  41  46
ENDBRANCH   1  36
TORSDOF 24
ENDMDL
MODEL 8
REMARK VINA RESULT:    -7.423      2.637      6.437
REMARK INTER + INTRA:         -18.065
REMARK INTER:                 -16.822
REMARK INTRA:                  -1.244
REMARK UNBOUND:                -2.830
REMARK SMILES O=C[C@@H](O)[C@@H](O)[C@H](CO)O[C@H]1OC[C@@H](O[C@@H]2OC[C@H](O[C@H]3OC[C@H](O[C@H]4OC[C@H](O)[C@H](O)[C@@H]4O)[C@@H](O)[C@H]3O)[C@H](O)[C@@H]2O)[C@@H](O)[C@H]1O
REMARK SMILES IDX 15 1 16 2 19 3 18 4 39 5 17 6 41 7 20 8 21 9 24 10 23 11
REMARK SMILES IDX 35 12 22 13 37 14 25 15 26 16 28 17 29 18 27 19 31 20 33 21
REMARK SMILES IDX 30 22 32 24 34 26 36 28 38 30 40 32 42 34 14 36 13 37 43 38
REMARK SMILES IDX 12 39 45 40 11 41 44 42 46 44 10 46 7 47 8 48 9 49 5 51 3 52
REMARK SMILES IDX 2 53 1 54 4 55 6 57
REMARK H PARENT 30 23 32 25 34 27 36 29 38 31 40 33 42 35 44 43 46 45 9 50
REMARK H PARENT 4 56 6 58
ROOT
ATOM      1  O   UNL     1      10.092   3.955  -7.530  1.00  0.00    -0.341 OA
ENDROOT
BRANCH   1   2
ATOM      2  C   UNL     1      10.261   2.767  -6.751  1.00  0.00    +0.282 C 
ATOM      3  C   UNL     1      11.944   1.964  -4.444  1.00  0.00    +0.179 C 
ATOM      4  C   UNL     1      11.027   3.195  -4.523  1.00  0.00    +0.198 C 
ATOM      5  C   UNL     1      12.009   1.245  -5.813  1.00  0.00    +0.179 C 
ATOM      6  O   UNL     1       9.909   2.962  -5.375  1.00  0.00    -0.347 OA
ATOM      7  C   UNL     1      11.691   2.206  -6.960  1.00  0.00    +0.202 C 
BRANCH   3   8
ATOM      8  O   UNL     1      13.285   2.304  -4.054  1.00  0.00    -0.341 OA
BRANCH   8   9
ATOM      9  C   UNL     1      14.013   1.233  -3.443  1.00  0.00    +0.282 C 
ATOM     10  C   UNL     1      15.817   3.174  -2.629  1.00  0.00    +0.179 C 
ATOM     11  C   UNL     1      16.329   1.901  -3.313  1.00  0.00    +0.198 C 
ATOM     12  C   UNL     1      14.716   2.817  -1.608  1.00  0.00    +0.179 C 
ATOM     13  O   UNL     1      15.326   1.144  -3.997  1.00  0.00    -0.347 OA
ATOM     14  C   UNL     1      14.063   1.458  -1.917  1.00  0.00    +0.202 C 
BRANCH  10  15
ATOM     15  O   UNL     1      16.947   3.831  -2.035  1.00  0.00    -0.341 OA
BRANCH  15  16
ATOM     16  C   UNL     1      17.674   4.664  -2.947  1.00  0.00    +0.282 C 
ATOM     17  C   UNL     1      17.503   6.757  -4.050  1.00  0.00    +0.198 C 
ATOM     18  C   UNL     1      18.462   7.494  -3.110  1.00  0.00    +0.171 C 
ATOM     19  O   UNL     1      16.804   5.728  -3.356  1.00  0.00    -0.347 OA
ATOM     20  C   UNL     1      18.743   6.672  -1.839  1.00  0.00    +0.179 C 
ATOM     21  C   UNL     1      18.926   5.196  -2.202  1.00  0.00    +0.202 C 
BRANCH  18  22
ATOM     22  O   UNL     1      19.704   7.769  -3.780  1.00  0.00    -0.388 OA
ATOM     23  H   UNL     1      19.513   8.477  -4.432  1.00  0.00    +0.211 HD
ENDBRANCH  18  22
BRANCH  20  24
ATOM     24  O   UNL     1      19.941   7.151  -1.200  1.00  0.00    -0.387 OA
ATOM     25  H   UNL     1      20.163   7.998  -1.642  1.00  0.00    +0.211 HD
ENDBRANCH  20  24
BRANCH  21  26
ATOM     26  O   UNL     1      20.100   5.099  -3.043  1.00  0.00    -0.385 OA
ATOM     27  H   UNL     1      20.748   5.699  -2.620  1.00  0.00    +0.211 HD
ENDBRANCH  21  26
ENDBRANCH  15  16
ENDBRANCH  10  15
BRANCH  12  28
ATOM     28  O   UNL     1      13.716   3.858  -1.616  1.00  0.00    -0.387 OA
ATOM     29  H   UNL     1      13.555   4.071  -2.558  1.00  0.00    +0.211 HD
ENDBRANCH  12  28
BRANCH  14  30
ATOM     30  O   UNL     1      12.760   1.407  -1.318  1.00  0.00    -0.385 OA
ATOM     31  H   UNL     1      12.557   2.302  -0.987  1.00  0.00    +0.211 HD
ENDBRANCH  14  30
ENDBRANCH   8   9
ENDBRANCH   3   8
BRANCH   5  32
ATOM     32  O   UNL     1      13.301   0.657  -6.022  1.00  0.00    -0.387 OA
ATOM     33  H   UNL     1      13.938   1.244  -5.561  1.00  0.00    +0.211 HD
ENDBRANCH   5  32
BRANCH   7  34
ATOM     34  O   UNL     1      12.679   3.255  -6.976  1.00  0.00    -0.385 OA
ATOM     35  H   UNL     1      13.397   2.947  -6.390  1.00  0.00    +0.211 HD
ENDBRANCH   7  34
ENDBRANCH   1   2
BRANCH   1  36
ATOM     36  C   UNL     1       8.725   4.276  -7.797  1.00  0.00    +0.179 C 
ATOM     37  C   UNL     1       8.577   4.842  -9.208  1.00  0.00    +0.198 C 
ATOM     38  C   UNL     1       8.227   5.316  -6.771  1.00  0.00    +0.179 C 
ATOM     39  O   UNL     1       7.212   5.095  -9.561  1.00  0.00    -0.347 OA
ATOM     40  C   UNL     1       7.167   6.257  -7.366  1.00  0.00    +0.202 C 
ATOM     41  C   UNL     1       6.379   5.529  -8.476  1.00  0.00    +0.282 C 
BRANCH  38  42
ATOM     42  O   UNL     1       9.313   6.121  -6.268  1.00  0.00    -0.387 OA
ATOM     43  H   UNL     1       9.624   6.654  -7.032  1.00  0.00    +0.211 HD
ENDBRANCH  38  42
BRANCH  40  44
ATOM     44  O   UNL     1       7.825   7.431  -7.891  1.00  0.00    -0.385 OA
ATOM     45  H   UNL     1       8.277   7.825  -7.116  1.00  0.00    +0.211 HD
ENDBRANCH  40  44
BRANCH  41  46
ATOM     46  O   UNL     1       5.356   6.395  -8.966  1.00  0.00    -0.341 OA
BRANCH  46  47
ATOM     47  C   UNL     1       4.033   5.836  -8.916  1.00  0.00    +0.178 C 
BRANCH  47  48
ATOM     48  C   UNL     1       4.066   4.612  -7.993  1.00  0.00    +0.191 C 
BRANCH  48  49
ATOM     49  O   UNL     1       3.920   4.996  -6.632  1.00  0.00    -0.394 OA
ATOM     50  H   UNL     1       2.963   5.059  -6.462  1.00  0.00    +0.210 HD
ENDBRANCH  48  49
ENDBRANCH  47  48
BRANCH  47  51
ATOM     51  C   UNL     1       3.018   6.927  -8.481  1.00  0.00    +0.181 C 
BRANCH  51  52
ATOM     52  C   UNL     1       2.610   7.905  -9.595  1.00  0.00    +0.209 C 
BRANCH  52  53
ATOM     53  C   UNL     1       2.299   7.123 -10.865  1.00  0.00    +0.258 C 
ATOM     54  O   UNL     1       2.161   7.671 -11.960  1.00  0.00    -0.300 OA
ENDBRANCH  52  53
BRANCH  52  55
ATOM     55  O   UNL     1       1.456   8.670  -9.245  1.00  0.00    -0.383 OA
ATOM     56  H   UNL     1       1.008   8.881 -10.090  1.00  0.00    +0.211 HD
ENDBRANCH  52  55
ENDBRANCH  51  52
BRANCH  51  57
ATOM     57  O   UNL     1       1.822   6.285  -7.985  1.00  0.00    -0.387 OA
ATOM     58  H   UNL     1       1.666   6.632  -7.078  1.00  0.00    +0.211 HD
ENDBRANCH  51  57
ENDBRANCH  47  51
ENDBRANCH  46  47
ENDBRANCH  41  46
ENDBRANCH   1  36
TORSDOF 24
ENDMDL
MODEL 9
REMARK VINA RESULT:    -7.093      4.885     13.405
REMARK INTER + INTRA:         -17.388
REMARK INTER:                 -15.687
REMARK INTRA:                  -1.701
REMARK UNBOUND:                -2.830
REMARK SMILES O=C[C@@H](O)[C@@H](O)[C@H](CO)O[C@H]1OC[C@@H](O[C@@H]2OC[C@H](O[C@H]3OC[C@H](O[C@H]4OC[C@H](O)[C@H](O)[C@@H]4O)[C@@H](O)[C@H]3O)[C@H](O)[C@@H]2O)[C@@H](O)[C@H]1O
REMARK SMILES IDX 15 1 16 2 19 3 18 4 39 5 17 6 41 7 20 8 21 9 24 10 23 11
REMARK SMILES IDX 35 12 22 13 37 14 25 15 26 16 28 17 29 18 27 19 31 20 33 21
REMARK SMILES IDX 30 22 32 24 34 26 36 28 38 30 40 32 42 34 14 36 13 37 43 38
REMARK SMILES IDX 12 39 45 40 11 41 44 42 46 44 10 46 7 47 8 48 9 49 5 51 3 52
REMARK SMILES IDX 2 53 1 54 4 55 6 57
REMARK H PARENT 30 23 32 25 34 27 36 29 38 31 40 33 42 35 44 43 46 45 9 50
REMARK H PARENT 4 56 6 58
ROOT
ATOM      1  O   UNL     1      16.724   0.709  -4.935  1.00  0.00    -0.341 OA
ENDROOT
BRANCH   1   2
ATOM      2  C   UNL     1      15.932   0.396  -6.084  1.00  0.00    +0.282 C 
ATOM      3  C   UNL     1      13.227   1.122  -7.059  1.00  0.00    +0.179 C 
ATOM      4  C   UNL     1      14.335   2.096  -6.627  1.00  0.00    +0.198 C 
ATOM      5  C   UNL     1      13.644  -0.340  -6.773  1.00  0.00    +0.179 C 
ATOM      6  O   UNL     1      15.630   1.555  -6.871  1.00  0.00    -0.347 OA
ATOM      7  C   UNL     1      14.681  -0.412  -5.652  1.00  0.00    +0.202 C 
BRANCH   3   8
ATOM      8  O   UNL     1      11.984   1.373  -6.382  1.00  0.00    -0.341 OA
BRANCH   8   9
ATOM      9  C   UNL     1      12.100   2.193  -5.214  1.00  0.00    +0.282 C 
ATOM     10  C   UNL     1       9.426   2.807  -5.608  1.00  0.00    +0.179 C 
ATOM     11  C   UNL     1      10.437   3.935  -5.373  1.00  0.00    +0.198 C 
ATOM     12  C   UNL     1       9.706   1.639  -4.640  1.00  0.00    +0.179 C 
ATOM     13  O   UNL     1      11.807   3.555  -5.531  1.00  0.00    -0.347 OA
ATOM     14  C   UNL     1      11.154   1.656  -4.119  1.00  0.00    +0.202 C 
BRANCH  10  15
ATOM     15  O   UNL     1       8.112   3.365  -5.456  1.00  0.00    -0.341 OA
BRANCH  15  16
ATOM     16  C   UNL     1       7.520   3.792  -6.690  1.00  0.00    +0.282 C 
ATOM     17  C   UNL     1       5.794   5.200  -7.503  1.00  0.00    +0.198 C 
ATOM     18  C   UNL     1       6.724   6.343  -7.922  1.00  0.00    +0.171 C 
ATOM     19  O   UNL     1       6.318   4.507  -6.375  1.00  0.00    -0.347 OA
ATOM     20  C   UNL     1       8.134   6.161  -7.332  1.00  0.00    +0.179 C 
ATOM     21  C   UNL     1       8.552   4.692  -7.420  1.00  0.00    +0.202 C 
BRANCH  18  22
ATOM     22  O   UNL     1       6.816   6.410  -9.355  1.00  0.00    -0.388 OA
ATOM     23  H   UNL     1       7.627   6.924  -9.555  1.00  0.00    +0.211 HD
ENDBRANCH  18  22
BRANCH  20  24
ATOM     24  O   UNL     1       9.079   6.963  -8.065  1.00  0.00    -0.387 OA
ATOM     25  H   UNL     1       9.261   7.746  -7.504  1.00  0.00    +0.211 HD
ENDBRANCH  20  24
BRANCH  21  26
ATOM     26  O   UNL     1       8.628   4.345  -8.824  1.00  0.00    -0.385 OA
ATOM     27  H   UNL     1       7.727   4.025  -9.040  1.00  0.00    +0.211 HD
ENDBRANCH  21  26
ENDBRANCH  15  16
ENDBRANCH  10  15
BRANCH  12  28
ATOM     28  O   UNL     1       9.441   0.394  -5.322  1.00  0.00    -0.387 OA
ATOM     29  H   UNL     1       9.379   0.616  -6.274  1.00  0.00    +0.211 HD
ENDBRANCH  12  28
BRANCH  14  30
ATOM     30  O   UNL     1      11.520   0.340  -3.683  1.00  0.00    -0.385 OA
ATOM     31  H   UNL     1      11.444  -0.254  -4.453  1.00  0.00    +0.211 HD
ENDBRANCH  14  30
ENDBRANCH   8   9
ENDBRANCH   3   8
BRANCH   5  32
ATOM     32  O   UNL     1      12.504  -1.140  -6.426  1.00  0.00    -0.387 OA
ATOM     33  H   UNL     1      12.783  -2.072  -6.558  1.00  0.00    +0.211 HD
ENDBRANCH   5  32
BRANCH   7  34
ATOM     34  O   UNL     1      14.098   0.115  -4.443  1.00  0.00    -0.385 OA
ATOM     35  H   UNL     1      13.266   0.546  -4.721  1.00  0.00    +0.211 HD
ENDBRANCH   7  34
ENDBRANCH   1   2
BRANCH   1  36
ATOM     36  C   UNL     1      17.144   2.074  -4.881  1.00  0.00    +0.179 C 
ATOM     37  C   UNL     1      18.662   2.158  -4.725  1.00  0.00    +0.198 C 
ATOM     38  C   UNL     1      16.464   2.779  -3.689  1.00  0.00    +0.179 C 
ATOM     39  O   UNL     1      19.146   3.506  -4.759  1.00  0.00    -0.347 OA
ATOM     40  C   UNL     1      17.349   3.883  -3.085  1.00  0.00    +0.202 C 
ATOM     41  C   UNL     1      18.265   4.478  -4.176  1.00  0.00    +0.282 C 
BRANCH  38  42
ATOM     42  O   UNL     1      16.134   1.843  -2.642  1.00  0.00    -0.387 OA
ATOM     43  H   UNL     1      16.867   1.906  -1.990  1.00  0.00    +0.211 HD
ENDBRANCH  38  42
BRANCH  40  44
ATOM     44  O   UNL     1      18.131   3.320  -2.010  1.00  0.00    -0.385 OA
ATOM     45  H   UNL     1      18.264   2.383  -2.268  1.00  0.00    +0.211 HD
ENDBRANCH  40  44
BRANCH  41  46
ATOM     46  O   UNL     1      19.027   5.545  -3.612  1.00  0.00    -0.341 OA
BRANCH  46  47
ATOM     47  C   UNL     1      18.266   6.732  -3.333  1.00  0.00    +0.178 C 
BRANCH  47  48
ATOM     48  C   UNL     1      18.868   7.406  -2.095  1.00  0.00    +0.191 C 
BRANCH  48  49
ATOM     49  O   UNL     1      18.575   6.665  -0.918  1.00  0.00    -0.394 OA
ATOM     50  H   UNL     1      18.918   7.184  -0.169  1.00  0.00    +0.210 HD
ENDBRANCH  48  49
ENDBRANCH  47  48
BRANCH  47  51
ATOM     51  C   UNL     1      18.229   7.640  -4.591  1.00  0.00    +0.181 C 
BRANCH  51  52
ATOM     52  C   UNL     1      16.821   7.895  -5.158  1.00  0.00    +0.209 C 
BRANCH  52  53
ATOM     53  C   UNL     1      16.806   7.561  -6.644  1.00  0.00    +0.258 C 
ATOM     54  O   UNL     1      15.825   7.774  -7.358  1.00  0.00    -0.300 OA
ENDBRANCH  52  53
BRANCH  52  55
ATOM     55  O   UNL     1      15.828   7.102  -4.508  1.00  0.00    -0.383 OA
ATOM     56  H   UNL     1      15.945   6.191  -4.850  1.00  0.00    +0.211 HD
ENDBRANCH  52  55
ENDBRANCH  51  52
BRANCH  51  57
ATOM     57  O   UNL     1      18.820   8.918  -4.265  1.00  0.00    -0.387 OA
ATOM     58  H   UNL     1      19.105   8.870  -3.326  1.00  0.00    +0.211 HD
ENDBRANCH  51  57
ENDBRANCH  47  51
ENDBRANCH  46  47
ENDBRANCH  41  46
ENDBRANCH   1  36
TORSDOF 24
ENDMDL
