MODEL 1
REMARK VINA RESULT:    -8.096      0.000      0.000
REMARK INTER + INTRA:         -18.914
REMARK INTER:                 -16.615
REMARK INTRA:                  -2.298
REMARK UNBOUND:                -2.298
REMARK SMILES O=C[C@@H](O)[C@@H](O)[C@H](CO)O[C@H]1OC[C@@H](O[C@@H]2OC[C@H](O[C@H]3OC[C@H](O[C@H]4OC[C@H](O)[C@H](O)[C@@H]4O)[C@@H](O)[C@H]3O)[C@H](O)[C@@H]2O)[C@@H](O)[C@H]1O
REMARK SMILES IDX 15 1 16 2 19 3 18 4 39 5 17 6 41 7 20 8 21 9 24 10 23 11
REMARK SMILES IDX 35 12 22 13 37 14 25 15 26 16 28 17 29 18 27 19 31 20 33 21
REMARK SMILES IDX 30 22 32 24 34 26 36 28 38 30 40 32 42 34 14 36 13 37 43 38
REMARK SMILES IDX 12 39 45 40 11 41 44 42 46 44 10 46 7 47 8 48 9 49 5 51 3 52
REMARK SMILES IDX 2 53 1 54 4 55 6 57
REMARK H PARENT 30 23 32 25 34 27 36 29 38 31 40 33 42 35 44 43 46 45 9 50
REMARK H PARENT 4 56 6 58
ROOT
ATOM      1  O   UNL     1       6.873  -8.469  -6.761  1.00  0.00    -0.341 OA
ENDROOT
BRANCH   1   2
ATOM      2  C   UNL     1       7.336  -8.694  -5.426  1.00  0.00    +0.282 C 
ATOM      3  C   UNL     1       9.921  -8.415  -4.000  1.00  0.00    +0.179 C 
ATOM      4  C   UNL     1       9.213  -7.333  -4.830  1.00  0.00    +0.198 C 
ATOM      5  C   UNL     1       9.180  -9.768  -4.122  1.00  0.00    +0.179 C 
ATOM      6  O   UNL     1       7.797  -7.492  -4.797  1.00  0.00    -0.347 OA
ATOM      7  C   UNL     1       8.376  -9.844  -5.421  1.00  0.00    +0.202 C 
BRANCH   3   8
ATOM      8  O   UNL     1      11.285  -8.615  -4.410  1.00  0.00    -0.341 OA
BRANCH   8   9
ATOM      9  C   UNL     1      11.708  -7.773  -5.488  1.00  0.00    +0.282 C 
ATOM     10  C   UNL     1      14.266  -8.060  -4.460  1.00  0.00    +0.179 C 
ATOM     11  C   UNL     1      13.736  -6.661  -4.798  1.00  0.00    +0.198 C 
ATOM     12  C   UNL     1      13.881  -9.053  -5.576  1.00  0.00    +0.179 C 
ATOM     13  O   UNL     1      12.320  -6.586  -4.982  1.00  0.00    -0.347 OA
ATOM     14  C   UNL     1      12.677  -8.559  -6.397  1.00  0.00    +0.202 C 
BRANCH  10  15
ATOM     15  O   UNL     1      15.684  -7.950  -4.264  1.00  0.00    -0.341 OA
BRANCH  15  16
ATOM     16  C   UNL     1      16.195  -8.821  -3.247  1.00  0.00    +0.282 C 
ATOM     17  C   UNL     1      18.193  -9.261  -2.047  1.00  0.00    +0.198 C 
ATOM     18  C   UNL     1      17.753  -8.543  -0.766  1.00  0.00    +0.171 C 
ATOM     19  O   UNL     1      17.617  -8.645  -3.195  1.00  0.00    -0.347 OA
ATOM     20  C   UNL     1      16.503  -7.679  -1.010  1.00  0.00    +0.179 C 
ATOM     21  C   UNL     1      15.516  -8.428  -1.908  1.00  0.00    +0.202 C 
BRANCH  18  22
ATOM     22  O   UNL     1      17.472  -9.500   0.269  1.00  0.00    -0.388 OA
ATOM     23  H   UNL     1      17.554  -9.017   1.120  1.00  0.00    +0.211 HD
ENDBRANCH  18  22
BRANCH  20  24
ATOM     24  O   UNL     1      15.863  -7.378   0.244  1.00  0.00    -0.387 OA
ATOM     25  H   UNL     1      15.604  -6.434   0.196  1.00  0.00    +0.211 HD
ENDBRANCH  20  24
BRANCH  21  26
ATOM     26  O   UNL     1      15.087  -9.609  -1.189  1.00  0.00    -0.385 OA
ATOM     27  H   UNL     1      15.780  -9.740  -0.509  1.00  0.00    +0.211 HD
ENDBRANCH  21  26
ENDBRANCH  15  16
ENDBRANCH  10  15
BRANCH  12  28
ATOM     28  O   UNL     1      13.580 -10.333  -4.979  1.00  0.00    -0.387 OA
ATOM     29  H   UNL     1      12.664 -10.264  -4.641  1.00  0.00    +0.211 HD
ENDBRANCH  12  28
BRANCH  14  30
ATOM     30  O   UNL     1      12.040  -9.678  -7.030  1.00  0.00    -0.385 OA
ATOM     31  H   UNL     1      11.655  -9.358  -7.867  1.00  0.00    +0.211 HD
ENDBRANCH  14  30
ENDBRANCH   8   9
ENDBRANCH   3   8
BRANCH   5  32
ATOM     32  O   UNL     1      10.102 -10.866  -4.063  1.00  0.00    -0.387 OA
ATOM     33  H   UNL     1      10.093 -11.270  -4.957  1.00  0.00    +0.211 HD
ENDBRANCH   5  32
BRANCH   7  34
ATOM     34  O   UNL     1       9.284  -9.747  -6.537  1.00  0.00    -0.385 OA
ATOM     35  H   UNL     1       9.441  -8.791  -6.663  1.00  0.00    +0.211 HD
ENDBRANCH   7  34
ENDBRANCH   1   2
BRANCH   1  36
ATOM     36  C   UNL     1       7.059  -7.126  -7.213  1.00  0.00    +0.179 C 
ATOM     37  C   UNL     1       5.863  -6.261  -6.817  1.00  0.00    +0.198 C 
ATOM     38  C   UNL     1       7.217  -7.114  -8.748  1.00  0.00    +0.179 C 
ATOM     39  O   UNL     1       6.040  -4.883  -7.165  1.00  0.00    -0.347 OA
ATOM     40  C   UNL     1       6.659  -5.826  -9.379  1.00  0.00    +0.202 C 
ATOM     41  C   UNL     1       6.775  -4.657  -8.378  1.00  0.00    +0.282 C 
BRANCH  38  42
ATOM     42  O   UNL     1       6.548  -8.239  -9.355  1.00  0.00    -0.387 OA
ATOM     43  H   UNL     1       6.006  -8.641  -8.642  1.00  0.00    +0.211 HD
ENDBRANCH  38  42
BRANCH  40  44
ATOM     44  O   UNL     1       5.282  -6.046  -9.752  1.00  0.00    -0.385 OA
ATOM     45  H   UNL     1       4.843  -5.184  -9.590  1.00  0.00    +0.211 HD
ENDBRANCH  40  44
BRANCH  41  46
ATOM     46  O   UNL     1       6.318  -3.460  -9.005  1.00  0.00    -0.341 OA
BRANCH  46  47
ATOM     47  C   UNL     1       7.091  -2.291  -8.686  1.00  0.00    +0.178 C 
BRANCH  47  48
ATOM     48  C   UNL     1       8.575  -2.649  -8.821  1.00  0.00    +0.191 C 
BRANCH  48  49
ATOM     49  O   UNL     1       9.391  -1.710  -8.133  1.00  0.00    -0.394 OA
ATOM     50  H   UNL     1       8.935  -0.851  -8.191  1.00  0.00    +0.210 HD
ENDBRANCH  48  49
ENDBRANCH  47  48
BRANCH  47  51
ATOM     51  C   UNL     1       6.644  -1.104  -9.581  1.00  0.00    +0.181 C 
BRANCH  51  52
ATOM     52  C   UNL     1       5.168  -0.700  -9.421  1.00  0.00    +0.209 C 
BRANCH  52  53
ATOM     53  C   UNL     1       4.897   0.557 -10.237  1.00  0.00    +0.258 C 
ATOM     54  O   UNL     1       5.011   1.688  -9.763  1.00  0.00    -0.300 OA
ENDBRANCH  52  53
BRANCH  52  55
ATOM     55  O   UNL     1       4.278  -1.725  -9.864  1.00  0.00    -0.383 OA
ATOM     56  H   UNL     1       4.590  -1.985 -10.755  1.00  0.00    +0.211 HD
ENDBRANCH  52  55
ENDBRANCH  51  52
BRANCH  51  57
ATOM     57  O   UNL     1       7.461   0.048  -9.276  1.00  0.00    -0.387 OA
ATOM     58  H   UNL     1       7.510   0.589 -10.095  1.00  0.00    +0.211 HD
ENDBRANCH  51  57
ENDBRANCH  47  51
ENDBRANCH  46  47
ENDBRANCH  41  46
ENDBRANCH   1  36
TORSDOF 24
ENDMDL
MODEL 2
REMARK VINA RESULT:    -7.738      4.196      7.455
REMARK INTER + INTRA:         -18.179
REMARK INTER:                 -15.638
REMARK INTRA:                  -2.541
REMARK UNBOUND:                -2.298
REMARK SMILES O=C[C@@H](O)[C@@H](O)[C@H](CO)O[C@H]1OC[C@@H](O[C@@H]2OC[C@H](O[C@H]3OC[C@H](O[C@H]4OC[C@H](O)[C@H](O)[C@@H]4O)[C@@H](O)[C@H]3O)[C@H](O)[C@@H]2O)[C@@H](O)[C@H]1O
REMARK SMILES IDX 15 1 16 2 19 3 18 4 39 5 17 6 41 7 20 8 21 9 24 10 23 11
REMARK SMILES IDX 35 12 22 13 37 14 25 15 26 16 28 17 29 18 27 19 31 20 33 21
REMARK SMILES IDX 30 22 32 24 34 26 36 28 38 30 40 32 42 34 14 36 13 37 43 38
REMARK SMILES IDX 12 39 45 40 11 41 44 42 46 44 10 46 7 47 8 48 9 49 5 51 3 52
REMARK SMILES IDX 2 53 1 54 4 55 6 57
REMARK H PARENT 30 23 32 25 34 27 36 29 38 31 40 33 42 35 44 43 46 45 9 50
REMARK H PARENT 4 56 6 58
ROOT
ATOM      1  O   UNL     1       7.452  -6.398  -5.997  1.00  0.00    -0.341 OA
ENDROOT
BRANCH   1   2
ATOM      2  C   UNL     1       8.574  -6.971  -5.319  1.00  0.00    +0.282 C 
ATOM      3  C   UNL     1       9.823  -9.657  -5.177  1.00  0.00    +0.179 C 
ATOM      4  C   UNL     1       9.502  -8.864  -6.454  1.00  0.00    +0.198 C 
ATOM      5  C   UNL     1       9.261  -8.933  -3.931  1.00  0.00    +0.179 C 
ATOM      6  O   UNL     1       9.569  -7.458  -6.228  1.00  0.00    -0.347 OA
ATOM      7  C   UNL     1       8.083  -8.029  -4.298  1.00  0.00    +0.202 C 
BRANCH   3   8
ATOM      8  O   UNL     1       9.277 -10.986  -5.207  1.00  0.00    -0.341 OA
BRANCH   8   9
ATOM      9  C   UNL     1      10.256 -12.027  -5.298  1.00  0.00    +0.282 C 
ATOM     10  C   UNL     1       8.110 -13.776  -5.437  1.00  0.00    +0.179 C 
ATOM     11  C   UNL     1       9.253 -14.053  -4.453  1.00  0.00    +0.198 C 
ATOM     12  C   UNL     1       8.682 -13.314  -6.793  1.00  0.00    +0.179 C 
ATOM     13  O   UNL     1      10.116 -12.939  -4.208  1.00  0.00    -0.347 OA
ATOM     14  C   UNL     1      10.106 -12.748  -6.655  1.00  0.00    +0.202 C 
BRANCH  10  15
ATOM     15  O   UNL     1       7.321 -14.972  -5.533  1.00  0.00    -0.341 OA
BRANCH  15  16
ATOM     16  C   UNL     1       7.415 -15.624  -6.806  1.00  0.00    +0.282 C 
ATOM     17  C   UNL     1       7.654 -17.791  -7.741  1.00  0.00    +0.198 C 
ATOM     18  C   UNL     1       6.179 -17.945  -8.127  1.00  0.00    +0.171 C 
ATOM     19  O   UNL     1       7.791 -16.988  -6.572  1.00  0.00    -0.347 OA
ATOM     20  C   UNL     1       5.309 -16.868  -7.455  1.00  0.00    +0.179 C 
ATOM     21  C   UNL     1       6.028 -15.517  -7.492  1.00  0.00    +0.202 C 
BRANCH  18  22
ATOM     22  O   UNL     1       6.026 -17.855  -9.553  1.00  0.00    -0.388 OA
ATOM     23  H   UNL     1       5.813 -18.761  -9.864  1.00  0.00    +0.211 HD
ENDBRANCH  18  22
BRANCH  20  24
ATOM     24  O   UNL     1       4.052 -16.751  -8.147  1.00  0.00    -0.387 OA
ATOM     25  H   UNL     1       3.758 -15.825  -8.017  1.00  0.00    +0.211 HD
ENDBRANCH  20  24
BRANCH  21  26
ATOM     26  O   UNL     1       6.175 -15.143  -8.884  1.00  0.00    -0.385 OA
ATOM     27  H   UNL     1       5.331 -14.696  -9.102  1.00  0.00    +0.211 HD
ENDBRANCH  21  26
ENDBRANCH  15  16
ENDBRANCH  10  15
BRANCH  12  28
ATOM     28  O   UNL     1       7.805 -12.314  -7.355  1.00  0.00    -0.387 OA
ATOM     29  H   UNL     1       7.277 -11.969  -6.606  1.00  0.00    +0.211 HD
ENDBRANCH  12  28
BRANCH  14  30
ATOM     30  O   UNL     1      10.385 -11.881  -7.763  1.00  0.00    -0.385 OA
ATOM     31  H   UNL     1      10.193 -10.969  -7.476  1.00  0.00    +0.211 HD
ENDBRANCH  14  30
ENDBRANCH   8   9
ENDBRANCH   3   8
BRANCH   5  32
ATOM     32  O   UNL     1       8.848  -9.878  -2.932  1.00  0.00    -0.387 OA
ATOM     33  H   UNL     1       8.569 -10.680  -3.424  1.00  0.00    +0.211 HD
ENDBRANCH   5  32
BRANCH   7  34
ATOM     34  O   UNL     1       7.023  -8.842  -4.841  1.00  0.00    -0.385 OA
ATOM     35  H   UNL     1       7.010  -9.652  -4.295  1.00  0.00    +0.211 HD
ENDBRANCH   7  34
ENDBRANCH   1   2
BRANCH   1  36
ATOM     36  C   UNL     1       7.800  -5.340  -6.891  1.00  0.00    +0.179 C 
ATOM     37  C   UNL     1       6.831  -4.169  -6.733  1.00  0.00    +0.198 C 
ATOM     38  C   UNL     1       7.753  -5.854  -8.345  1.00  0.00    +0.179 C 
ATOM     39  O   UNL     1       7.191  -3.042  -7.542  1.00  0.00    -0.347 OA
ATOM     40  C   UNL     1       7.342  -4.752  -9.338  1.00  0.00    +0.202 C 
ATOM     41  C   UNL     1       7.786  -3.373  -8.806  1.00  0.00    +0.282 C 
BRANCH  38  42
ATOM     42  O   UNL     1       6.829  -6.953  -8.485  1.00  0.00    -0.387 OA
ATOM     43  H   UNL     1       7.033  -7.361  -9.355  1.00  0.00    +0.211 HD
ENDBRANCH  38  42
BRANCH  40  44
ATOM     44  O   UNL     1       5.910  -4.795  -9.518  1.00  0.00    -0.385 OA
ATOM     45  H   UNL     1       5.779  -4.628 -10.476  1.00  0.00    +0.211 HD
ENDBRANCH  40  44
BRANCH  41  46
ATOM     46  O   UNL     1       7.459  -2.374  -9.771  1.00  0.00    -0.341 OA
BRANCH  46  47
ATOM     47  C   UNL     1       7.987  -1.071  -9.477  1.00  0.00    +0.178 C 
BRANCH  47  48
ATOM     48  C   UNL     1       9.430  -1.013  -9.990  1.00  0.00    +0.191 C 
BRANCH  48  49
ATOM     49  O   UNL     1       9.467  -0.672 -11.370  1.00  0.00    -0.394 OA
ATOM     50  H   UNL     1       8.541  -0.580 -11.659  1.00  0.00    +0.210 HD
ENDBRANCH  48  49
ENDBRANCH  47  48
BRANCH  47  51
ATOM     51  C   UNL     1       7.060   0.020 -10.078  1.00  0.00    +0.181 C 
BRANCH  51  52
ATOM     52  C   UNL     1       5.770   0.276  -9.280  1.00  0.00    +0.209 C 
BRANCH  52  53
ATOM     53  C   UNL     1       4.740   0.941 -10.184  1.00  0.00    +0.258 C 
ATOM     54  O   UNL     1       4.715   2.159 -10.370  1.00  0.00    -0.300 OA
ENDBRANCH  52  53
BRANCH  52  55
ATOM     55  O   UNL     1       5.205  -0.931  -8.767  1.00  0.00    -0.383 OA
ATOM     56  H   UNL     1       5.617  -1.068  -7.889  1.00  0.00    +0.211 HD
ENDBRANCH  52  55
ENDBRANCH  51  52
BRANCH  51  57
ATOM     57  O   UNL     1       7.791   1.264 -10.161  1.00  0.00    -0.387 OA
ATOM     58  H   UNL     1       8.664   1.056 -10.563  1.00  0.00    +0.211 HD
ENDBRANCH  51  57
ENDBRANCH  47  51
ENDBRANCH  46  47
ENDBRANCH  41  46
ENDBRANCH   1  36
TORSDOF 24
ENDMDL
MODEL 3
REMARK VINA RESULT:    -7.447      2.591      2.927
REMARK INTER + INTRA:         -17.582
REMARK INTER:                 -15.429
REMARK INTRA:                  -2.152
REMARK UNBOUND:                -2.298
REMARK SMILES O=C[C@@H](O)[C@@H](O)[C@H](CO)O[C@H]1OC[C@@H](O[C@@H]2OC[C@H](O[C@H]3OC[C@H](O[C@H]4OC[C@H](O)[C@H](O)[C@@H]4O)[C@@H](O)[C@H]3O)[C@H](O)[C@@H]2O)[C@@H](O)[C@H]1O
REMARK SMILES IDX 15 1 16 2 19 3 18 4 39 5 17 6 41 7 20 8 21 9 24 10 23 11
REMARK SMILES IDX 35 12 22 13 37 14 25 15 26 16 28 17 29 18 27 19 31 20 33 21
REMARK SMILES IDX 30 22 32 24 34 26 36 28 38 30 40 32 42 34 14 36 13 37 43 38
REMARK SMILES IDX 12 39 45 40 11 41 44 42 46 44 10 46 7 47 8 48 9 49 5 51 3 52
REMARK SMILES IDX 2 53 1 54 4 55 6 57
REMARK H PARENT 30 23 32 25 34 27 36 29 38 31 40 33 42 35 44 43 46 45 9 50
REMARK H PARENT 4 56 6 58
ROOT
ATOM      1  O   UNL     1       7.739  -7.269  -6.989  1.00  0.00    -0.341 OA
ENDROOT
BRANCH   1   2
ATOM      2  C   UNL     1       7.930  -6.971  -5.603  1.00  0.00    +0.282 C 
ATOM      3  C   UNL     1      10.018  -7.544  -3.576  1.00  0.00    +0.179 C 
ATOM      4  C   UNL     1      10.234  -6.902  -4.956  1.00  0.00    +0.198 C 
ATOM      5  C   UNL     1       8.553  -8.015  -3.419  1.00  0.00    +0.179 C 
ATOM      6  O   UNL     1       9.090  -6.162  -5.373  1.00  0.00    -0.347 OA
ATOM      7  C   UNL     1       7.907  -8.284  -4.779  1.00  0.00    +0.202 C 
BRANCH   3   8
ATOM      8  O   UNL     1      10.877  -8.676  -3.359  1.00  0.00    -0.341 OA
BRANCH   8   9
ATOM      9  C   UNL     1      11.891  -8.850  -4.355  1.00  0.00    +0.282 C 
ATOM     10  C   UNL     1      13.440  -9.926  -2.323  1.00  0.00    +0.179 C 
ATOM     11  C   UNL     1      14.029  -8.843  -3.236  1.00  0.00    +0.198 C 
ATOM     12  C   UNL     1      12.640 -10.944  -3.162  1.00  0.00    +0.179 C 
ATOM     13  O   UNL     1      13.066  -8.118  -4.004  1.00  0.00    -0.347 OA
ATOM     14  C   UNL     1      12.195 -10.355  -4.513  1.00  0.00    +0.202 C 
BRANCH  10  15
ATOM     15  O   UNL     1      14.526 -10.519  -1.597  1.00  0.00    -0.341 OA
BRANCH  15  16
ATOM     16  C   UNL     1      14.396 -11.935  -1.419  1.00  0.00    +0.282 C 
ATOM     17  C   UNL     1      15.729 -13.879  -1.157  1.00  0.00    +0.198 C 
ATOM     18  C   UNL     1      15.528 -13.990   0.358  1.00  0.00    +0.171 C 
ATOM     19  O   UNL     1      15.697 -12.518  -1.575  1.00  0.00    -0.347 OA
ATOM     20  C   UNL     1      14.914 -12.703   0.936  1.00  0.00    +0.179 C 
ATOM     21  C   UNL     1      13.821 -12.179   0.002  1.00  0.00    +0.202 C 
BRANCH  18  22
ATOM     22  O   UNL     1      14.672 -15.103   0.666  1.00  0.00    -0.388 OA
ATOM     23  H   UNL     1      15.087 -15.568   1.424  1.00  0.00    +0.211 HD
ENDBRANCH  18  22
BRANCH  20  24
ATOM     24  O   UNL     1      14.338 -12.972   2.228  1.00  0.00    -0.387 OA
ATOM     25  H   UNL     1      13.426 -12.614   2.197  1.00  0.00    +0.211 HD
ENDBRANCH  20  24
BRANCH  21  26
ATOM     26  O   UNL     1      12.770 -13.175  -0.037  1.00  0.00    -0.385 OA
ATOM     27  H   UNL     1      13.246 -14.027   0.046  1.00  0.00    +0.211 HD
ENDBRANCH  21  26
ENDBRANCH  15  16
ENDBRANCH  10  15
BRANCH  12  28
ATOM     28  O   UNL     1      11.487 -11.371  -2.406  1.00  0.00    -0.387 OA
ATOM     29  H   UNL     1      11.028 -10.552  -2.129  1.00  0.00    +0.211 HD
ENDBRANCH  12  28
BRANCH  14  30
ATOM     30  O   UNL     1      11.065 -11.089  -5.004  1.00  0.00    -0.385 OA
ATOM     31  H   UNL     1      10.630 -10.536  -5.680  1.00  0.00    +0.211 HD
ENDBRANCH  14  30
ENDBRANCH   8   9
ENDBRANCH   3   8
BRANCH   5  32
ATOM     32  O   UNL     1       8.479  -9.199  -2.610  1.00  0.00    -0.387 OA
ATOM     33  H   UNL     1       9.405  -9.508  -2.507  1.00  0.00    +0.211 HD
ENDBRANCH   5  32
BRANCH   7  34
ATOM     34  O   UNL     1       8.632  -9.341  -5.439  1.00  0.00    -0.385 OA
ATOM     35  H   UNL     1       8.398  -9.266  -6.384  1.00  0.00    +0.211 HD
ENDBRANCH   7  34
ENDBRANCH   1   2
BRANCH   1  36
ATOM     36  C   UNL     1       8.057  -6.181  -7.859  1.00  0.00    +0.179 C 
ATOM     37  C   UNL     1       7.449  -4.882  -7.331  1.00  0.00    +0.198 C 
ATOM     38  C   UNL     1       7.508  -6.469  -9.272  1.00  0.00    +0.179 C 
ATOM     39  O   UNL     1       7.815  -3.742  -8.117  1.00  0.00    -0.347 OA
ATOM     40  C   UNL     1       7.098  -5.183 -10.009  1.00  0.00    +0.202 C 
ATOM     41  C   UNL     1       7.960  -3.999  -9.521  1.00  0.00    +0.282 C 
BRANCH  38  42
ATOM     42  O   UNL     1       6.362  -7.345  -9.223  1.00  0.00    -0.387 OA
ATOM     43  H   UNL     1       6.088  -7.474 -10.157  1.00  0.00    +0.211 HD
ENDBRANCH  38  42
BRANCH  40  44
ATOM     44  O   UNL     1       5.697  -4.930  -9.765  1.00  0.00    -0.385 OA
ATOM     45  H   UNL     1       5.229  -5.602 -10.306  1.00  0.00    +0.211 HD
ENDBRANCH  40  44
BRANCH  41  46
ATOM     46  O   UNL     1       7.612  -2.832 -10.266  1.00  0.00    -0.341 OA
BRANCH  46  47
ATOM     47  C   UNL     1       7.908  -1.594  -9.599  1.00  0.00    +0.178 C 
BRANCH  47  48
ATOM     48  C   UNL     1       9.373  -1.239  -9.877  1.00  0.00    +0.191 C 
BRANCH  48  49
ATOM     49  O   UNL     1       9.781  -1.723 -11.151  1.00  0.00    -0.394 OA
ATOM     50  H   UNL     1       9.963  -0.940 -11.701  1.00  0.00    +0.210 HD
ENDBRANCH  48  49
ENDBRANCH  47  48
BRANCH  47  51
ATOM     51  C   UNL     1       6.898  -0.503 -10.045  1.00  0.00    +0.181 C 
BRANCH  51  52
ATOM     52  C   UNL     1       5.498  -0.631  -9.422  1.00  0.00    +0.209 C 
BRANCH  52  53
ATOM     53  C   UNL     1       4.586   0.442 -10.002  1.00  0.00    +0.258 C 
ATOM     54  O   UNL     1       4.721   1.637  -9.736  1.00  0.00    -0.300 OA
ENDBRANCH  52  53
BRANCH  52  55
ATOM     55  O   UNL     1       4.910  -1.907  -9.676  1.00  0.00    -0.383 OA
ATOM     56  H   UNL     1       4.173  -1.743 -10.301  1.00  0.00    +0.211 HD
ENDBRANCH  52  55
ENDBRANCH  51  52
BRANCH  51  57
ATOM     57  O   UNL     1       7.427   0.797  -9.697  1.00  0.00    -0.387 OA
ATOM     58  H   UNL     1       6.673   1.428  -9.720  1.00  0.00    +0.211 HD
ENDBRANCH  51  57
ENDBRANCH  47  51
ENDBRANCH  46  47
ENDBRANCH  41  46
ENDBRANCH   1  36
TORSDOF 24
ENDMDL
MODEL 4
REMARK VINA RESULT:    -6.858      2.341      5.742
REMARK INTER + INTRA:         -16.373
REMARK INTER:                 -13.188
REMARK INTRA:                  -3.184
REMARK UNBOUND:                -2.298
REMARK SMILES O=C[C@@H](O)[C@@H](O)[C@H](CO)O[C@H]1OC[C@@H](O[C@@H]2OC[C@H](O[C@H]3OC[C@H](O[C@H]4OC[C@H](O)[C@H](O)[C@@H]4O)[C@@H](O)[C@H]3O)[C@H](O)[C@@H]2O)[C@@H](O)[C@H]1O
REMARK SMILES IDX 15 1 16 2 19 3 18 4 39 5 17 6 41 7 20 8 21 9 24 10 23 11
REMARK SMILES IDX 35 12 22 13 37 14 25 15 26 16 28 17 29 18 27 19 31 20 33 21
REMARK SMILES IDX 30 22 32 24 34 26 36 28 38 30 40 32 42 34 14 36 13 37 43 38
REMARK SMILES IDX 12 39 45 40 11 41 44 42 46 44 10 46 7 47 8 48 9 49 5 51 3 52
REMARK SMILES IDX 2 53 1 54 4 55 6 57
REMARK H PARENT 30 23 32 25 34 27 36 29 38 31 40 33 42 35 44 43 46 45 9 50
REMARK H PARENT 4 56 6 58
ROOT
ATOM      1  O   UNL     1      11.869 -10.097  -4.931  1.00  0.00    -0.341 OA
ENDROOT
BRANCH   1   2
ATOM      2  C   UNL     1      12.870  -9.254  -5.509  1.00  0.00    +0.282 C 
ATOM      3  C   UNL     1      15.732  -8.685  -4.979  1.00  0.00    +0.179 C 
ATOM      4  C   UNL     1      15.098 -10.069  -5.189  1.00  0.00    +0.198 C 
ATOM      5  C   UNL     1      14.640  -7.589  -4.923  1.00  0.00    +0.179 C 
ATOM      6  O   UNL     1      13.966 -10.001  -6.051  1.00  0.00    -0.347 OA
ATOM      7  C   UNL     1      13.294  -8.169  -4.486  1.00  0.00    +0.202 C 
BRANCH   3   8
ATOM      8  O   UNL     1      16.500  -8.612  -3.766  1.00  0.00    -0.341 OA
BRANCH   8   9
ATOM      9  C   UNL     1      17.080  -9.856  -3.357  1.00  0.00    +0.282 C 
ATOM     10  C   UNL     1      18.173  -8.436  -1.242  1.00  0.00    +0.179 C 
ATOM     11  C   UNL     1      19.067  -9.356  -2.083  1.00  0.00    +0.198 C 
ATOM     12  C   UNL     1      16.826  -9.132  -0.953  1.00  0.00    +0.179 C 
ATOM     13  O   UNL     1      18.504  -9.758  -3.334  1.00  0.00    -0.347 OA
ATOM     14  C   UNL     1      16.522 -10.245  -1.971  1.00  0.00    +0.202 C 
BRANCH  10  15
ATOM     15  O   UNL     1      18.900  -8.094  -0.053  1.00  0.00    -0.341 OA
BRANCH  15  16
ATOM     16  C   UNL     1      18.689  -6.745   0.384  1.00  0.00    +0.282 C 
ATOM     17  C   UNL     1      19.669  -5.098   1.782  1.00  0.00    +0.198 C 
ATOM     18  C   UNL     1      20.296  -4.293   0.639  1.00  0.00    +0.171 C 
ATOM     19  O   UNL     1      19.608  -6.483   1.453  1.00  0.00    -0.347 OA
ATOM     20  C   UNL     1      20.274  -5.085  -0.681  1.00  0.00    +0.179 C 
ATOM     21  C   UNL     1      18.936  -5.813  -0.832  1.00  0.00    +0.202 C 
BRANCH  18  22
ATOM     22  O   UNL     1      19.592  -3.053   0.459  1.00  0.00    -0.388 OA
ATOM     23  H   UNL     1      20.050  -2.581  -0.270  1.00  0.00    +0.211 HD
ENDBRANCH  18  22
BRANCH  20  24
ATOM     24  O   UNL     1      20.448  -4.188  -1.794  1.00  0.00    -0.387 OA
ATOM     25  H   UNL     1      19.555  -3.844  -2.006  1.00  0.00    +0.211 HD
ENDBRANCH  20  24
BRANCH  21  26
ATOM     26  O   UNL     1      17.901  -4.804  -0.919  1.00  0.00    -0.385 OA
ATOM     27  H   UNL     1      18.220  -4.083  -0.339  1.00  0.00    +0.211 HD
ENDBRANCH  21  26
ENDBRANCH  15  16
ENDBRANCH  10  15
BRANCH  12  28
ATOM     28  O   UNL     1      15.775  -8.143  -0.973  1.00  0.00    -0.387 OA
ATOM     29  H   UNL     1      14.958  -8.623  -1.222  1.00  0.00    +0.211 HD
ENDBRANCH  12  28
BRANCH  14  30
ATOM     30  O   UNL     1      15.109 -10.489  -2.003  1.00  0.00    -0.385 OA
ATOM     31  H   UNL     1      14.783 -10.197  -2.875  1.00  0.00    +0.211 HD
ENDBRANCH  14  30
ENDBRANCH   8   9
ENDBRANCH   3   8
BRANCH   5  32
ATOM     32  O   UNL     1      15.020  -6.532  -4.029  1.00  0.00    -0.387 OA
ATOM     33  H   UNL     1      14.203  -6.287  -3.545  1.00  0.00    +0.211 HD
ENDBRANCH   5  32
BRANCH   7  34
ATOM     34  O   UNL     1      13.429  -8.713  -3.158  1.00  0.00    -0.385 OA
ATOM     35  H   UNL     1      13.507  -9.679  -3.278  1.00  0.00    +0.211 HD
ENDBRANCH   7  34
ENDBRANCH   1   2
BRANCH   1  36
ATOM     36  C   UNL     1      10.563  -9.891  -5.472  1.00  0.00    +0.179 C 
ATOM     37  C   UNL     1      10.580  -8.743  -6.481  1.00  0.00    +0.198 C 
ATOM     38  C   UNL     1       9.576  -9.560  -4.333  1.00  0.00    +0.179 C 
ATOM     39  O   UNL     1       9.313  -8.555  -7.123  1.00  0.00    -0.347 OA
ATOM     40  C   UNL     1       8.453  -8.615  -4.794  1.00  0.00    +0.202 C 
ATOM     41  C   UNL     1       8.171  -8.825  -6.297  1.00  0.00    +0.282 C 
BRANCH  38  42
ATOM     42  O   UNL     1      10.249  -8.948  -3.214  1.00  0.00    -0.387 OA
ATOM     43  H   UNL     1      11.178  -8.815  -3.505  1.00  0.00    +0.211 HD
ENDBRANCH  38  42
BRANCH  40  44
ATOM     44  O   UNL     1       8.853  -7.252  -4.533  1.00  0.00    -0.385 OA
ATOM     45  H   UNL     1       8.717  -7.137  -3.569  1.00  0.00    +0.211 HD
ENDBRANCH  40  44
BRANCH  41  46
ATOM     46  O   UNL     1       7.081  -7.991  -6.687  1.00  0.00    -0.341 OA
BRANCH  46  47
ATOM     47  C   UNL     1       7.289  -7.285  -7.922  1.00  0.00    +0.178 C 
BRANCH  47  48
ATOM     48  C   UNL     1       6.422  -7.943  -9.000  1.00  0.00    +0.191 C 
BRANCH  48  49
ATOM     49  O   UNL     1       5.065  -8.026  -8.582  1.00  0.00    -0.394 OA
ATOM     50  H   UNL     1       4.666  -8.764  -9.077  1.00  0.00    +0.210 HD
ENDBRANCH  48  49
ENDBRANCH  47  48
BRANCH  47  51
ATOM     51  C   UNL     1       7.003  -5.773  -7.717  1.00  0.00    +0.181 C 
BRANCH  51  52
ATOM     52  C   UNL     1       8.257  -4.884  -7.666  1.00  0.00    +0.209 C 
BRANCH  52  53
ATOM     53  C   UNL     1       7.903  -3.483  -8.148  1.00  0.00    +0.258 C 
ATOM     54  O   UNL     1       7.223  -2.706  -7.475  1.00  0.00    -0.300 OA
ENDBRANCH  52  53
BRANCH  52  55
ATOM     55  O   UNL     1       8.793  -4.784  -6.346  1.00  0.00    -0.383 OA
ATOM     56  H   UNL     1       8.241  -4.120  -5.882  1.00  0.00    +0.211 HD
ENDBRANCH  52  55
ENDBRANCH  51  52
BRANCH  51  57
ATOM     57  O   UNL     1       6.163  -5.304  -8.796  1.00  0.00    -0.387 OA
ATOM     58  H   UNL     1       5.454  -4.758  -8.389  1.00  0.00    +0.211 HD
ENDBRANCH  51  57
ENDBRANCH  47  51
ENDBRANCH  46  47
ENDBRANCH  41  46
ENDBRANCH   1  36
TORSDOF 24
ENDMDL
MODEL 5
REMARK VINA RESULT:    -6.633      3.346     11.138
REMARK INTER + INTRA:         -15.911
REMARK INTER:                 -12.301
REMARK INTRA:                  -3.610
REMARK UNBOUND:                -2.298
REMARK SMILES O=C[C@@H](O)[C@@H](O)[C@H](CO)O[C@H]1OC[C@@H](O[C@@H]2OC[C@H](O[C@H]3OC[C@H](O[C@H]4OC[C@H](O)[C@H](O)[C@@H]4O)[C@@H](O)[C@H]3O)[C@H](O)[C@@H]2O)[C@@H](O)[C@H]1O
REMARK SMILES IDX 15 1 16 2 19 3 18 4 39 5 17 6 41 7 20 8 21 9 24 10 23 11
REMARK SMILES IDX 35 12 22 13 37 14 25 15 26 16 28 17 29 18 27 19 31 20 33 21
REMARK SMILES IDX 30 22 32 24 34 26 36 28 38 30 40 32 42 34 14 36 13 37 43 38
REMARK SMILES IDX 12 39 45 40 11 41 44 42 46 44 10 46 7 47 8 48 9 49 5 51 3 52
REMARK SMILES IDX 2 53 1 54 4 55 6 57
REMARK H PARENT 30 23 32 25 34 27 36 29 38 31 40 33 42 35 44 43 46 45 9 50
REMARK H PARENT 4 56 6 58
ROOT
ATOM      1  O   UNL     1      16.143  -9.392  -3.861  1.00  0.00    -0.341 OA
ENDROOT
BRANCH   1   2
ATOM      2  C   UNL     1      15.081  -9.626  -2.932  1.00  0.00    +0.282 C 
ATOM      3  C   UNL     1      12.508 -11.100  -2.977  1.00  0.00    +0.179 C 
ATOM      4  C   UNL     1      13.890 -11.661  -3.346  1.00  0.00    +0.198 C 
ATOM      5  C   UNL     1      12.591  -9.577  -2.714  1.00  0.00    +0.179 C 
ATOM      6  O   UNL     1      14.929 -11.016  -2.616  1.00  0.00    -0.347 OA
ATOM      7  C   UNL     1      13.782  -8.952  -3.442  1.00  0.00    +0.202 C 
BRANCH   3   8
ATOM      8  O   UNL     1      11.533 -11.322  -4.009  1.00  0.00    -0.341 OA
BRANCH   8   9
ATOM      9  C   UNL     1      10.417 -12.126  -3.608  1.00  0.00    +0.282 C 
ATOM     10  C   UNL     1       8.869 -10.406  -5.134  1.00  0.00    +0.179 C 
ATOM     11  C   UNL     1       8.444 -10.740  -3.700  1.00  0.00    +0.198 C 
ATOM     12  C   UNL     1       9.350 -11.684  -5.852  1.00  0.00    +0.179 C 
ATOM     13  O   UNL     1       9.465 -11.336  -2.895  1.00  0.00    -0.347 OA
ATOM     14  C   UNL     1       9.784 -12.775  -4.857  1.00  0.00    +0.202 C 
BRANCH  10  15
ATOM     15  O   UNL     1       7.752  -9.779  -5.782  1.00  0.00    -0.341 OA
BRANCH  15  16
ATOM     16  C   UNL     1       8.097  -8.590  -6.505  1.00  0.00    +0.282 C 
ATOM     17  C   UNL     1       7.387  -6.344  -6.781  1.00  0.00    +0.198 C 
ATOM     18  C   UNL     1       8.476  -5.738  -5.891  1.00  0.00    +0.171 C 
ATOM     19  O   UNL     1       7.031  -7.648  -6.330  1.00  0.00    -0.347 OA
ATOM     20  C   UNL     1       9.190  -6.821  -5.064  1.00  0.00    +0.179 C 
ATOM     21  C   UNL     1       9.436  -8.061  -5.927  1.00  0.00    +0.202 C 
BRANCH  18  22
ATOM     22  O   UNL     1       9.443  -5.040  -6.693  1.00  0.00    -0.388 OA
ATOM     23  H   UNL     1      10.107  -5.708  -6.967  1.00  0.00    +0.211 HD
ENDBRANCH  18  22
BRANCH  20  24
ATOM     24  O   UNL     1      10.454  -6.321  -4.589  1.00  0.00    -0.387 OA
ATOM     25  H   UNL     1      11.019  -7.110  -4.443  1.00  0.00    +0.211 HD
ENDBRANCH  20  24
BRANCH  21  26
ATOM     26  O   UNL     1      10.335  -7.675  -6.995  1.00  0.00    -0.385 OA
ATOM     27  H   UNL     1      11.002  -7.110  -6.553  1.00  0.00    +0.211 HD
ENDBRANCH  21  26
ENDBRANCH  15  16
ENDBRANCH  10  15
BRANCH  12  28
ATOM     28  O   UNL     1      10.449 -11.345  -6.725  1.00  0.00    -0.387 OA
ATOM     29  H   UNL     1      11.040 -12.126  -6.729  1.00  0.00    +0.211 HD
ENDBRANCH  12  28
BRANCH  14  30
ATOM     30  O   UNL     1      10.681 -13.686  -5.509  1.00  0.00    -0.385 OA
ATOM     31  H   UNL     1      11.263 -13.158  -6.087  1.00  0.00    +0.211 HD
ENDBRANCH  14  30
ENDBRANCH   8   9
ENDBRANCH   3   8
BRANCH   5  32
ATOM     32  O   UNL     1      11.381  -8.920  -3.119  1.00  0.00    -0.387 OA
ATOM     33  H   UNL     1      10.839  -9.609  -3.559  1.00  0.00    +0.211 HD
ENDBRANCH   5  32
BRANCH   7  34
ATOM     34  O   UNL     1      13.609  -9.137  -4.862  1.00  0.00    -0.385 OA
ATOM     35  H   UNL     1      12.674  -8.919  -5.041  1.00  0.00    +0.211 HD
ENDBRANCH   7  34
ENDBRANCH   1   2
BRANCH   1  36
ATOM     36  C   UNL     1      17.368  -8.991  -3.243  1.00  0.00    +0.179 C 
ATOM     37  C   UNL     1      17.140  -8.674  -1.766  1.00  0.00    +0.198 C 
ATOM     38  C   UNL     1      17.925  -7.743  -3.958  1.00  0.00    +0.179 C 
ATOM     39  O   UNL     1      18.354  -8.356  -1.076  1.00  0.00    -0.347 OA
ATOM     40  C   UNL     1      18.701  -6.823  -2.999  1.00  0.00    +0.202 C 
ATOM     41  C   UNL     1      19.330  -7.657  -1.863  1.00  0.00    +0.282 C 
BRANCH  38  42
ATOM     42  O   UNL     1      16.870  -6.970  -4.567  1.00  0.00    -0.387 OA
ATOM     43  H   UNL     1      16.520  -6.392  -3.855  1.00  0.00    +0.211 HD
ENDBRANCH  38  42
BRANCH  40  44
ATOM     44  O   UNL     1      17.796  -5.832  -2.467  1.00  0.00    -0.385 OA
ATOM     45  H   UNL     1      17.208  -6.335  -1.866  1.00  0.00    +0.211 HD
ENDBRANCH  40  44
BRANCH  41  46
ATOM     46  O   UNL     1      20.102  -6.796  -1.026  1.00  0.00    -0.341 OA
BRANCH  46  47
ATOM     47  C   UNL     1      19.667  -6.756   0.343  1.00  0.00    +0.178 C 
BRANCH  47  48
ATOM     48  C   UNL     1      20.756  -7.397   1.210  1.00  0.00    +0.191 C 
BRANCH  48  49
ATOM     49  O   UNL     1      20.207  -7.927   2.409  1.00  0.00    -0.394 OA
ATOM     50  H   UNL     1      19.863  -8.813   2.190  1.00  0.00    +0.210 HD
ENDBRANCH  48  49
ENDBRANCH  47  48
BRANCH  47  51
ATOM     51  C   UNL     1      19.321  -5.296   0.741  1.00  0.00    +0.181 C 
BRANCH  51  52
ATOM     52  C   UNL     1      17.848  -5.065   1.119  1.00  0.00    +0.209 C 
BRANCH  52  53
ATOM     53  C   UNL     1      17.460  -3.629   0.789  1.00  0.00    +0.258 C 
ATOM     54  O   UNL     1      18.207  -2.676   1.017  1.00  0.00    -0.300 OA
ENDBRANCH  52  53
BRANCH  52  55
ATOM     55  O   UNL     1      16.968  -5.942   0.415  1.00  0.00    -0.383 OA
ATOM     56  H   UNL     1      17.067  -6.819   0.839  1.00  0.00    +0.211 HD
ENDBRANCH  52  55
ENDBRANCH  51  52
BRANCH  51  57
ATOM     57  O   UNL     1      20.140  -4.910   1.868  1.00  0.00    -0.387 OA
ATOM     58  H   UNL     1      19.857  -4.005   2.130  1.00  0.00    +0.211 HD
ENDBRANCH  51  57
ENDBRANCH  47  51
ENDBRANCH  46  47
ENDBRANCH  41  46
ENDBRANCH   1  36
TORSDOF 24
ENDMDL
MODEL 6
REMARK VINA RESULT:    -6.549     17.382     24.734
REMARK INTER + INTRA:         -15.740
REMARK INTER:                 -13.917
REMARK INTRA:                  -1.822
REMARK UNBOUND:                -2.298
REMARK SMILES O=C[C@@H](O)[C@@H](O)[C@H](CO)O[C@H]1OC[C@@H](O[C@@H]2OC[C@H](O[C@H]3OC[C@H](O[C@H]4OC[C@H](O)[C@H](O)[C@@H]4O)[C@@H](O)[C@H]3O)[C@H](O)[C@@H]2O)[C@@H](O)[C@H]1O
REMARK SMILES IDX 15 1 16 2 19 3 18 4 39 5 17 6 41 7 20 8 21 9 24 10 23 11
REMARK SMILES IDX 35 12 22 13 37 14 25 15 26 16 28 17 29 18 27 19 31 20 33 21
REMARK SMILES IDX 30 22 32 24 34 26 36 28 38 30 40 32 42 34 14 36 13 37 43 38
REMARK SMILES IDX 12 39 45 40 11 41 44 42 46 44 10 46 7 47 8 48 9 49 5 51 3 52
REMARK SMILES IDX 2 53 1 54 4 55 6 57
REMARK H PARENT 30 23 32 25 34 27 36 29 38 31 40 33 42 35 44 43 46 45 9 50
REMARK H PARENT 4 56 6 58
ROOT
ATOM      1  O   UNL     1      -7.980  11.325 -13.149  1.00  0.00    -0.341 OA
ENDROOT
BRANCH   1   2
ATOM      2  C   UNL     1      -6.972  11.902 -13.984  1.00  0.00    +0.282 C 
ATOM      3  C   UNL     1      -4.331  11.046 -15.025  1.00  0.00    +0.179 C 
ATOM      4  C   UNL     1      -5.655  10.274 -15.145  1.00  0.00    +0.198 C 
ATOM      5  C   UNL     1      -4.508  12.298 -14.133  1.00  0.00    +0.179 C 
ATOM      6  O   UNL     1      -6.772  11.157 -15.192  1.00  0.00    -0.347 OA
ATOM      7  C   UNL     1      -5.677  12.126 -13.162  1.00  0.00    +0.202 C 
BRANCH   3   8
ATOM      8  O   UNL     1      -3.278  10.243 -14.464  1.00  0.00    -0.341 OA
BRANCH   8   9
ATOM      9  C   UNL     1      -2.440   9.603 -15.433  1.00  0.00    +0.282 C 
ATOM     10  C   UNL     1      -0.393   9.910 -13.590  1.00  0.00    +0.179 C 
ATOM     11  C   UNL     1      -0.175  10.340 -15.045  1.00  0.00    +0.198 C 
ATOM     12  C   UNL     1      -1.132   8.557 -13.545  1.00  0.00    +0.179 C 
ATOM     13  O   UNL     1      -1.372  10.469 -15.817  1.00  0.00    -0.347 OA
ATOM     14  C   UNL     1      -1.905   8.280 -14.847  1.00  0.00    +0.202 C 
BRANCH  10  15
ATOM     15  O   UNL     1       0.892   9.874 -12.952  1.00  0.00    -0.341 OA
BRANCH  15  16
ATOM     16  C   UNL     1       1.817   8.970 -13.569  1.00  0.00    +0.282 C 
ATOM     17  C   UNL     1       4.151   8.610 -13.798  1.00  0.00    +0.198 C 
ATOM     18  C   UNL     1       4.224   7.479 -12.767  1.00  0.00    +0.171 C 
ATOM     19  O   UNL     1       3.128   9.541 -13.457  1.00  0.00    -0.347 OA
ATOM     20  C   UNL     1       2.936   7.401 -11.929  1.00  0.00    +0.179 C 
ATOM     21  C   UNL     1       1.714   7.612 -12.827  1.00  0.00    +0.202 C 
BRANCH  18  22
ATOM     22  O   UNL     1       4.438   6.219 -13.425  1.00  0.00    -0.388 OA
ATOM     23  H   UNL     1       3.551   5.892 -13.687  1.00  0.00    +0.211 HD
ENDBRANCH  18  22
BRANCH  20  24
ATOM     24  O   UNL     1       2.838   6.110 -11.299  1.00  0.00    -0.387 OA
ATOM     25  H   UNL     1       2.962   5.451 -12.013  1.00  0.00    +0.211 HD
ENDBRANCH  20  24
BRANCH  21  26
ATOM     26  O   UNL     1       1.677   6.516 -13.773  1.00  0.00    -0.385 OA
ATOM     27  H   UNL     1       2.094   5.771 -13.292  1.00  0.00    +0.211 HD
ENDBRANCH  21  26
ENDBRANCH  15  16
ENDBRANCH  10  15
BRANCH  12  28
ATOM     28  O   UNL     1      -2.040   8.557 -12.423  1.00  0.00    -0.387 OA
ATOM     29  H   UNL     1      -1.486   8.705 -11.628  1.00  0.00    +0.211 HD
ENDBRANCH  12  28
BRANCH  14  30
ATOM     30  O   UNL     1      -2.955   7.337 -14.587  1.00  0.00    -0.385 OA
ATOM     31  H   UNL     1      -2.976   7.182 -13.625  1.00  0.00    +0.211 HD
ENDBRANCH  14  30
ENDBRANCH   8   9
ENDBRANCH   3   8
BRANCH   5  32
ATOM     32  O   UNL     1      -3.308  12.577 -13.397  1.00  0.00    -0.387 OA
ATOM     33  H   UNL     1      -2.857  13.298 -13.887  1.00  0.00    +0.211 HD
ENDBRANCH   5  32
BRANCH   7  34
ATOM     34  O   UNL     1      -5.399  11.011 -12.291  1.00  0.00    -0.385 OA
ATOM     35  H   UNL     1      -5.037  10.312 -12.870  1.00  0.00    +0.211 HD
ENDBRANCH   7  34
ENDBRANCH   1   2
BRANCH   1  36
ATOM     36  C   UNL     1      -8.720  12.287 -12.394  1.00  0.00    +0.179 C 
ATOM     37  C   UNL     1      -8.806  11.861 -10.929  1.00  0.00    +0.198 C 
ATOM     38  C   UNL     1     -10.143  12.418 -12.976  1.00  0.00    +0.179 C 
ATOM     39  O   UNL     1      -9.460  12.837 -10.109  1.00  0.00    -0.347 OA
ATOM     40  C   UNL     1     -11.184  12.755 -11.895  1.00  0.00    +0.202 C 
ATOM     41  C   UNL     1     -10.519  13.557 -10.757  1.00  0.00    +0.282 C 
BRANCH  38  42
ATOM     42  O   UNL     1     -10.556  11.204 -13.636  1.00  0.00    -0.387 OA
ATOM     43  H   UNL     1      -9.985  11.127 -14.432  1.00  0.00    +0.211 HD
ENDBRANCH  38  42
BRANCH  40  44
ATOM     44  O   UNL     1     -11.751  11.526 -11.393  1.00  0.00    -0.385 OA
ATOM     45  H   UNL     1     -12.708  11.597 -11.595  1.00  0.00    +0.211 HD
ENDBRANCH  40  44
BRANCH  41  46
ATOM     46  O   UNL     1     -11.514  13.920  -9.800  1.00  0.00    -0.341 OA
BRANCH  46  47
ATOM     47  C   UNL     1     -11.246  13.461  -8.465  1.00  0.00    +0.178 C 
BRANCH  47  48
ATOM     48  C   UNL     1     -11.061  14.688  -7.566  1.00  0.00    +0.191 C 
BRANCH  48  49
ATOM     49  O   UNL     1     -12.178  15.562  -7.660  1.00  0.00    -0.394 OA
ATOM     50  H   UNL     1     -12.973  15.000  -7.660  1.00  0.00    +0.210 HD
ENDBRANCH  48  49
ENDBRANCH  47  48
BRANCH  47  51
ATOM     51  C   UNL     1     -12.378  12.504  -8.001  1.00  0.00    +0.181 C 
BRANCH  51  52
ATOM     52  C   UNL     1     -11.959  11.031  -7.868  1.00  0.00    +0.209 C 
BRANCH  52  53
ATOM     53  C   UNL     1     -10.438  10.938  -7.844  1.00  0.00    +0.258 C 
ATOM     54  O   UNL     1      -9.836  10.180  -7.082  1.00  0.00    -0.300 OA
ENDBRANCH  52  53
BRANCH  52  55
ATOM     55  O   UNL     1     -12.465  10.433  -6.674  1.00  0.00    -0.383 OA
ATOM     56  H   UNL     1     -12.943  11.144  -6.200  1.00  0.00    +0.211 HD
ENDBRANCH  52  55
ENDBRANCH  51  52
BRANCH  51  57
ATOM     57  O   UNL     1     -12.872  12.949  -6.718  1.00  0.00    -0.387 OA
ATOM     58  H   UNL     1     -12.462  13.824  -6.541  1.00  0.00    +0.211 HD
ENDBRANCH  51  57
ENDBRANCH  47  51
ENDBRANCH  46  47
ENDBRANCH  41  46
ENDBRANCH   1  36
TORSDOF 24
ENDMDL
MODEL 7
REMARK VINA RESULT:    -6.497      2.162     11.454
REMARK INTER + INTRA:         -15.632
REMARK INTER:                 -13.477
REMARK INTRA:                  -2.155
REMARK UNBOUND:                -2.298
REMARK SMILES O=C[C@@H](O)[C@@H](O)[C@H](CO)O[C@H]1OC[C@@H](O[C@@H]2OC[C@H](O[C@H]3OC[C@H](O[C@H]4OC[C@H](O)[C@H](O)[C@@H]4O)[C@@H](O)[C@H]3O)[C@H](O)[C@@H]2O)[C@@H](O)[C@H]1O
REMARK SMILES IDX 15 1 16 2 19 3 18 4 39 5 17 6 41 7 20 8 21 9 24 10 23 11
REMARK SMILES IDX 35 12 22 13 37 14 25 15 26 16 28 17 29 18 27 19 31 20 33 21
REMARK SMILES IDX 30 22 32 24 34 26 36 28 38 30 40 32 42 34 14 36 13 37 43 38
REMARK SMILES IDX 12 39 45 40 11 41 44 42 46 44 10 46 7 47 8 48 9 49 5 51 3 52
REMARK SMILES IDX 2 53 1 54 4 55 6 57
REMARK H PARENT 30 23 32 25 34 27 36 29 38 31 40 33 42 35 44 43 46 45 9 50
REMARK H PARENT 4 56 6 58
ROOT
ATOM      1  O   UNL     1      14.949  -8.948  -3.898  1.00  0.00    -0.341 OA
ENDROOT
BRANCH   1   2
ATOM      2  C   UNL     1      14.506  -8.109  -4.969  1.00  0.00    +0.282 C 
ATOM      3  C   UNL     1      11.888  -7.405  -6.171  1.00  0.00    +0.179 C 
ATOM      4  C   UNL     1      12.268  -7.310  -4.684  1.00  0.00    +0.198 C 
ATOM      5  C   UNL     1      13.022  -8.080  -6.980  1.00  0.00    +0.179 C 
ATOM      6  O   UNL     1      13.658  -7.047  -4.515  1.00  0.00    -0.347 OA
ATOM      7  C   UNL     1      13.880  -8.979  -6.089  1.00  0.00    +0.202 C 
BRANCH   3   8
ATOM      8  O   UNL     1      10.681  -8.157  -6.381  1.00  0.00    -0.341 OA
BRANCH   8   9
ATOM      9  C   UNL     1      10.079  -8.658  -5.182  1.00  0.00    +0.282 C 
ATOM     10  C   UNL     1       7.648  -8.161  -6.418  1.00  0.00    +0.179 C 
ATOM     11  C   UNL     1       7.890  -7.662  -4.988  1.00  0.00    +0.198 C 
ATOM     12  C   UNL     1       8.194  -9.596  -6.574  1.00  0.00    +0.179 C 
ATOM     13  O   UNL     1       9.260  -7.656  -4.579  1.00  0.00    -0.347 OA
ATOM     14  C   UNL     1       9.262  -9.924  -5.515  1.00  0.00    +0.202 C 
BRANCH  10  15
ATOM     15  O   UNL     1       6.241  -8.060  -6.680  1.00  0.00    -0.341 OA
BRANCH  15  16
ATOM     16  C   UNL     1       5.847  -6.800  -7.238  1.00  0.00    +0.282 C 
ATOM     17  C   UNL     1       6.381  -4.492  -7.109  1.00  0.00    +0.198 C 
ATOM     18  C   UNL     1       7.189  -4.458  -8.410  1.00  0.00    +0.171 C 
ATOM     19  O   UNL     1       6.488  -5.766  -6.479  1.00  0.00    -0.347 OA
ATOM     20  C   UNL     1       7.511  -5.878  -8.907  1.00  0.00    +0.179 C 
ATOM     21  C   UNL     1       6.292  -6.785  -8.725  1.00  0.00    +0.202 C 
BRANCH  18  22
ATOM     22  O   UNL     1       6.459  -3.754  -9.430  1.00  0.00    -0.388 OA
ATOM     23  H   UNL     1       6.375  -2.827  -9.117  1.00  0.00    +0.211 HD
ENDBRANCH  18  22
BRANCH  20  24
ATOM     24  O   UNL     1       7.865  -5.841 -10.302  1.00  0.00    -0.387 OA
ATOM     25  H   UNL     1       7.248  -6.455 -10.753  1.00  0.00    +0.211 HD
ENDBRANCH  20  24
BRANCH  21  26
ATOM     26  O   UNL     1       5.236  -6.266  -9.568  1.00  0.00    -0.385 OA
ATOM     27  H   UNL     1       5.123  -5.341  -9.268  1.00  0.00    +0.211 HD
ENDBRANCH  21  26
ENDBRANCH  15  16
ENDBRANCH  10  15
BRANCH  12  28
ATOM     28  O   UNL     1       8.750  -9.743  -7.898  1.00  0.00    -0.387 OA
ATOM     29  H   UNL     1       8.759 -10.705  -8.081  1.00  0.00    +0.211 HD
ENDBRANCH  12  28
BRANCH  14  30
ATOM     30  O   UNL     1      10.090 -10.996  -5.989  1.00  0.00    -0.385 OA
ATOM     31  H   UNL     1      10.211 -11.619  -5.248  1.00  0.00    +0.211 HD
ENDBRANCH  14  30
ENDBRANCH   8   9
ENDBRANCH   3   8
BRANCH   5  32
ATOM     32  O   UNL     1      12.487  -8.850  -8.067  1.00  0.00    -0.387 OA
ATOM     33  H   UNL     1      12.896  -9.739  -7.989  1.00  0.00    +0.211 HD
ENDBRANCH   5  32
BRANCH   7  34
ATOM     34  O   UNL     1      13.051 -10.028  -5.549  1.00  0.00    -0.385 OA
ATOM     35  H   UNL     1      12.999  -9.851  -4.590  1.00  0.00    +0.211 HD
ENDBRANCH   7  34
ENDBRANCH   1   2
BRANCH   1  36
ATOM     36  C   UNL     1      15.334  -8.228  -2.726  1.00  0.00    +0.179 C 
ATOM     37  C   UNL     1      16.497  -7.287  -3.038  1.00  0.00    +0.198 C 
ATOM     38  C   UNL     1      15.757  -9.220  -1.622  1.00  0.00    +0.179 C 
ATOM     39  O   UNL     1      16.863  -6.472  -1.918  1.00  0.00    -0.347 OA
ATOM     40  C   UNL     1      16.849  -8.641  -0.708  1.00  0.00    +0.202 C 
ATOM     41  C   UNL     1      16.718  -7.105  -0.638  1.00  0.00    +0.282 C 
BRANCH  38  42
ATOM     42  O   UNL     1      16.248 -10.454  -2.185  1.00  0.00    -0.387 OA
ATOM     43  H   UNL     1      15.454 -10.928  -2.517  1.00  0.00    +0.211 HD
ENDBRANCH  38  42
BRANCH  40  44
ATOM     44  O   UNL     1      18.143  -9.021  -1.225  1.00  0.00    -0.385 OA
ATOM     45  H   UNL     1      17.968  -9.281  -2.155  1.00  0.00    +0.211 HD
ENDBRANCH  40  44
BRANCH  41  46
ATOM     46  O   UNL     1      17.695  -6.594   0.269  1.00  0.00    -0.341 OA
BRANCH  46  47
ATOM     47  C   UNL     1      18.107  -5.245  -0.003  1.00  0.00    +0.178 C 
BRANCH  47  48
ATOM     48  C   UNL     1      17.436  -4.325   1.023  1.00  0.00    +0.191 C 
BRANCH  48  49
ATOM     49  O   UNL     1      17.098  -3.073   0.440  1.00  0.00    -0.394 OA
ATOM     50  H   UNL     1      16.226  -2.825   0.797  1.00  0.00    +0.210 HD
ENDBRANCH  48  49
ENDBRANCH  47  48
BRANCH  47  51
ATOM     51  C   UNL     1      19.657  -5.160  -0.009  1.00  0.00    +0.181 C 
BRANCH  51  52
ATOM     52  C   UNL     1      20.306  -5.367  -1.388  1.00  0.00    +0.209 C 
BRANCH  52  53
ATOM     53  C   UNL     1      20.872  -6.779  -1.473  1.00  0.00    +0.258 C 
ATOM     54  O   UNL     1      20.668  -7.625  -0.600  1.00  0.00    -0.300 OA
ENDBRANCH  52  53
BRANCH  52  55
ATOM     55  O   UNL     1      19.373  -5.192  -2.454  1.00  0.00    -0.383 OA
ATOM     56  H   UNL     1      18.503  -5.043  -2.028  1.00  0.00    +0.211 HD
ENDBRANCH  52  55
ENDBRANCH  51  52
BRANCH  51  57
ATOM     57  O   UNL     1      20.058  -3.862   0.486  1.00  0.00    -0.387 OA
ATOM     58  H   UNL     1      19.234  -3.349   0.642  1.00  0.00    +0.211 HD
ENDBRANCH  51  57
ENDBRANCH  47  51
ENDBRANCH  46  47
ENDBRANCH  41  46
ENDBRANCH   1  36
TORSDOF 24
ENDMDL
MODEL 8
REMARK VINA RESULT:    -6.396      6.417     12.207
REMARK INTER + INTRA:         -15.424
REMARK INTER:                 -13.019
REMARK INTRA:                  -2.405
REMARK UNBOUND:                -2.298
REMARK SMILES O=C[C@@H](O)[C@@H](O)[C@H](CO)O[C@H]1OC[C@@H](O[C@@H]2OC[C@H](O[C@H]3OC[C@H](O[C@H]4OC[C@H](O)[C@H](O)[C@@H]4O)[C@@H](O)[C@H]3O)[C@H](O)[C@@H]2O)[C@@H](O)[C@H]1O
REMARK SMILES IDX 15 1 16 2 19 3 18 4 39 5 17 6 41 7 20 8 21 9 24 10 23 11
REMARK SMILES IDX 35 12 22 13 37 14 25 15 26 16 28 17 29 18 27 19 31 20 33 21
REMARK SMILES IDX 30 22 32 24 34 26 36 28 38 30 40 32 42 34 14 36 13 37 43 38
REMARK SMILES IDX 12 39 45 40 11 41 44 42 46 44 10 46 7 47 8 48 9 49 5 51 3 52
REMARK SMILES IDX 2 53 1 54 4 55 6 57
REMARK H PARENT 30 23 32 25 34 27 36 29 38 31 40 33 42 35 44 43 46 45 9 50
REMARK H PARENT 4 56 6 58
ROOT
ATOM      1  O   UNL     1       9.073 -14.828  -2.209  1.00  0.00    -0.341 OA
ENDROOT
BRANCH   1   2
ATOM      2  C   UNL     1       9.210 -14.373  -3.558  1.00  0.00    +0.282 C 
ATOM      3  C   UNL     1      10.500 -12.062  -4.897  1.00  0.00    +0.179 C 
ATOM      4  C   UNL     1      11.166 -13.038  -3.914  1.00  0.00    +0.198 C 
ATOM      5  C   UNL     1       8.981 -12.341  -4.997  1.00  0.00    +0.179 C 
ATOM      6  O   UNL     1      10.578 -14.334  -3.984  1.00  0.00    -0.347 OA
ATOM      7  C   UNL     1       8.459 -13.028  -3.734  1.00  0.00    +0.202 C 
BRANCH   3   8
ATOM      8  O   UNL     1      10.677 -10.689  -4.510  1.00  0.00    -0.341 OA
BRANCH   8   9
ATOM      9  C   UNL     1      11.936 -10.123  -4.892  1.00  0.00    +0.282 C 
ATOM     10  C   UNL     1      10.494  -7.865  -5.604  1.00  0.00    +0.179 C 
ATOM     11  C   UNL     1      11.509  -8.459  -6.587  1.00  0.00    +0.198 C 
ATOM     12  C   UNL     1      11.084  -7.857  -4.178  1.00  0.00    +0.179 C 
ATOM     13  O   UNL     1      11.932  -9.791  -6.281  1.00  0.00    -0.347 OA
ATOM     14  C   UNL     1      12.221  -8.882  -4.020  1.00  0.00    +0.202 C 
BRANCH  10  15
ATOM     15  O   UNL     1      10.145  -6.557  -6.079  1.00  0.00    -0.341 OA
BRANCH  15  16
ATOM     16  C   UNL     1       8.733  -6.352  -6.219  1.00  0.00    +0.282 C 
ATOM     17  C   UNL     1       7.127  -5.710  -7.843  1.00  0.00    +0.198 C 
ATOM     18  C   UNL     1       6.627  -7.132  -8.120  1.00  0.00    +0.171 C 
ATOM     19  O   UNL     1       8.506  -5.719  -7.486  1.00  0.00    -0.347 OA
ATOM     20  C   UNL     1       7.575  -8.186  -7.522  1.00  0.00    +0.179 C 
ATOM     21  C   UNL     1       8.045  -7.740  -6.136  1.00  0.00    +0.202 C 
BRANCH  18  22
ATOM     22  O   UNL     1       5.311  -7.312  -7.570  1.00  0.00    -0.388 OA
ATOM     23  H   UNL     1       5.294  -8.217  -7.189  1.00  0.00    +0.211 HD
ENDBRANCH  18  22
BRANCH  20  24
ATOM     24  O   UNL     1       6.894  -9.448  -7.404  1.00  0.00    -0.387 OA
ATOM     25  H   UNL     1       6.053  -9.258  -6.936  1.00  0.00    +0.211 HD
ENDBRANCH  20  24
BRANCH  21  26
ATOM     26  O   UNL     1       6.878  -7.680  -5.281  1.00  0.00    -0.385 OA
ATOM     27  H   UNL     1       6.759  -6.724  -5.105  1.00  0.00    +0.211 HD
ENDBRANCH  21  26
ENDBRANCH  15  16
ENDBRANCH  10  15
BRANCH  12  28
ATOM     28  O   UNL     1      10.029  -8.140  -3.234  1.00  0.00    -0.387 OA
ATOM     29  H   UNL     1      10.087  -7.442  -2.549  1.00  0.00    +0.211 HD
ENDBRANCH  12  28
BRANCH  14  30
ATOM     30  O   UNL     1      12.372  -9.217  -2.633  1.00  0.00    -0.385 OA
ATOM     31  H   UNL     1      13.083  -8.654  -2.273  1.00  0.00    +0.211 HD
ENDBRANCH  14  30
ENDBRANCH   8   9
ENDBRANCH   3   8
BRANCH   5  32
ATOM     32  O   UNL     1       8.250 -11.126  -5.221  1.00  0.00    -0.387 OA
ATOM     33  H   UNL     1       7.302 -11.381  -5.209  1.00  0.00    +0.211 HD
ENDBRANCH   5  32
BRANCH   7  34
ATOM     34  O   UNL     1       8.664 -12.151  -2.608  1.00  0.00    -0.385 OA
ATOM     35  H   UNL     1       8.693 -11.250  -2.982  1.00  0.00    +0.211 HD
ENDBRANCH   7  34
ENDBRANCH   1   2
BRANCH   1  36
ATOM     36  C   UNL     1       8.293 -16.019  -2.083  1.00  0.00    +0.179 C 
ATOM     37  C   UNL     1       6.810 -15.673  -1.959  1.00  0.00    +0.198 C 
ATOM     38  C   UNL     1       8.745 -16.804  -0.833  1.00  0.00    +0.179 C 
ATOM     39  O   UNL     1       5.974 -16.836  -1.922  1.00  0.00    -0.347 OA
ATOM     40  C   UNL     1       7.586 -17.581  -0.185  1.00  0.00    +0.202 C 
ATOM     41  C   UNL     1       6.549 -17.972  -1.259  1.00  0.00    +0.282 C 
BRANCH  38  42
ATOM     42  O   UNL     1       9.312 -15.928   0.162  1.00  0.00    -0.387 OA
ATOM     43  H   UNL     1       8.941 -16.227   1.021  1.00  0.00    +0.211 HD
ENDBRANCH  38  42
BRANCH  40  44
ATOM     44  O   UNL     1       6.982 -16.755   0.834  1.00  0.00    -0.385 OA
ATOM     45  H   UNL     1       7.738 -16.433   1.369  1.00  0.00    +0.211 HD
ENDBRANCH  40  44
BRANCH  41  46
ATOM     46  O   UNL     1       5.519 -18.750  -0.650  1.00  0.00    -0.341 OA
BRANCH  46  47
ATOM     47  C   UNL     1       4.185 -18.322  -0.971  1.00  0.00    +0.178 C 
BRANCH  47  48
ATOM     48  C   UNL     1       3.352 -19.564  -1.307  1.00  0.00    +0.191 C 
BRANCH  48  49
ATOM     49  O   UNL     1       2.638 -19.385  -2.523  1.00  0.00    -0.394 OA
ATOM     50  H   UNL     1       1.912 -18.765  -2.331  1.00  0.00    +0.210 HD
ENDBRANCH  48  49
ENDBRANCH  47  48
BRANCH  47  51
ATOM     51  C   UNL     1       3.611 -17.474   0.196  1.00  0.00    +0.181 C 
BRANCH  51  52
ATOM     52  C   UNL     1       2.087 -17.575   0.374  1.00  0.00    +0.209 C 
BRANCH  52  53
ATOM     53  C   UNL     1       1.730 -17.328   1.834  1.00  0.00    +0.258 C 
ATOM     54  O   UNL     1       0.692 -16.758   2.172  1.00  0.00    -0.300 OA
ENDBRANCH  52  53
BRANCH  52  55
ATOM     55  O   UNL     1       1.387 -16.622  -0.427  1.00  0.00    -0.383 OA
ATOM     56  H   UNL     1       1.346 -17.007  -1.328  1.00  0.00    +0.211 HD
ENDBRANCH  52  55
ENDBRANCH  51  52
BRANCH  51  57
ATOM     57  O   UNL     1       4.236 -17.891   1.431  1.00  0.00    -0.387 OA
ATOM     58  H   UNL     1       3.558 -17.804   2.138  1.00  0.00    +0.211 HD
ENDBRANCH  51  57
ENDBRANCH  47  51
ENDBRANCH  46  47
ENDBRANCH  41  46
ENDBRANCH   1  36
TORSDOF 24
ENDMDL
MODEL 9
REMARK VINA RESULT:    -6.318     18.920     22.392
REMARK INTER + INTRA:         -15.265
REMARK INTER:                 -12.163
REMARK INTRA:                  -3.102
REMARK UNBOUND:                -2.298
REMARK SMILES O=C[C@@H](O)[C@@H](O)[C@H](CO)O[C@H]1OC[C@@H](O[C@@H]2OC[C@H](O[C@H]3OC[C@H](O[C@H]4OC[C@H](O)[C@H](O)[C@@H]4O)[C@@H](O)[C@H]3O)[C@H](O)[C@@H]2O)[C@@H](O)[C@H]1O
REMARK SMILES IDX 15 1 16 2 19 3 18 4 39 5 17 6 41 7 20 8 21 9 24 10 23 11
REMARK SMILES IDX 35 12 22 13 37 14 25 15 26 16 28 17 29 18 27 19 31 20 33 21
REMARK SMILES IDX 30 22 32 24 34 26 36 28 38 30 40 32 42 34 14 36 13 37 43 38
REMARK SMILES IDX 12 39 45 40 11 41 44 42 46 44 10 46 7 47 8 48 9 49 5 51 3 52
REMARK SMILES IDX 2 53 1 54 4 55 6 57
REMARK H PARENT 30 23 32 25 34 27 36 29 38 31 40 33 42 35 44 43 46 45 9 50
REMARK H PARENT 4 56 6 58
ROOT
ATOM      1  O   UNL     1     -11.105 -14.474 -10.826  1.00  0.00    -0.341 OA
ENDROOT
BRANCH   1   2
ATOM      2  C   UNL     1     -11.250 -15.776 -10.252  1.00  0.00    +0.282 C 
ATOM      3  C   UNL     1     -10.963 -16.945  -7.541  1.00  0.00    +0.179 C 
ATOM      4  C   UNL     1     -11.821 -15.729  -7.927  1.00  0.00    +0.198 C 
ATOM      5  C   UNL     1     -10.113 -17.417  -8.746  1.00  0.00    +0.179 C 
ATOM      6  O   UNL     1     -12.291 -15.826  -9.268  1.00  0.00    -0.347 OA
ATOM      7  C   UNL     1      -9.876 -16.277  -9.738  1.00  0.00    +0.202 C 
BRANCH   3   8
ATOM      8  O   UNL     1     -10.071 -16.662  -6.450  1.00  0.00    -0.341 OA
BRANCH   8   9
ATOM      9  C   UNL     1     -10.500 -17.178  -5.185  1.00  0.00    +0.282 C 
ATOM     10  C   UNL     1      -7.908 -18.117  -4.900  1.00  0.00    +0.179 C 
ATOM     11  C   UNL     1      -9.090 -19.059  -4.643  1.00  0.00    +0.198 C 
ATOM     12  C   UNL     1      -8.189 -16.736  -4.272  1.00  0.00    +0.179 C 
ATOM     13  O   UNL     1     -10.345 -18.596  -5.147  1.00  0.00    -0.347 OA
ATOM     14  C   UNL     1      -9.694 -16.496  -4.059  1.00  0.00    +0.202 C 
BRANCH  10  15
ATOM     15  O   UNL     1      -6.729 -18.747  -4.376  1.00  0.00    -0.341 OA
BRANCH  15  16
ATOM     16  C   UNL     1      -5.783 -19.128  -5.383  1.00  0.00    +0.282 C 
ATOM     17  C   UNL     1      -5.617 -19.391  -7.734  1.00  0.00    +0.198 C 
ATOM     18  C   UNL     1      -4.863 -18.078  -7.973  1.00  0.00    +0.171 C 
ATOM     19  O   UNL     1      -6.495 -19.275  -6.619  1.00  0.00    -0.347 OA
ATOM     20  C   UNL     1      -4.907 -17.173  -6.730  1.00  0.00    +0.179 C 
ATOM     21  C   UNL     1      -4.709 -18.012  -5.465  1.00  0.00    +0.202 C 
BRANCH  18  22
ATOM     22  O   UNL     1      -3.493 -18.347  -8.316  1.00  0.00    -0.388 OA
ATOM     23  H   UNL     1      -3.299 -19.250  -7.984  1.00  0.00    +0.211 HD
ENDBRANCH  18  22
BRANCH  20  24
ATOM     24  O   UNL     1      -3.864 -16.184  -6.806  1.00  0.00    -0.387 OA
ATOM     25  H   UNL     1      -3.055 -16.618  -6.462  1.00  0.00    +0.211 HD
ENDBRANCH  20  24
BRANCH  21  26
ATOM     26  O   UNL     1      -3.381 -18.586  -5.530  1.00  0.00    -0.385 OA
ATOM     27  H   UNL     1      -3.514 -19.445  -5.982  1.00  0.00    +0.211 HD
ENDBRANCH  21  26
ENDBRANCH  15  16
ENDBRANCH  10  15
BRANCH  12  28
ATOM     28  O   UNL     1      -7.642 -15.712  -5.130  1.00  0.00    -0.387 OA
ATOM     29  H   UNL     1      -8.036 -15.862  -6.013  1.00  0.00    +0.211 HD
ENDBRANCH  12  28
BRANCH  14  30
ATOM     30  O   UNL     1      -9.947 -15.085  -3.987  1.00  0.00    -0.385 OA
ATOM     31  H   UNL     1     -10.756 -14.908  -4.503  1.00  0.00    +0.211 HD
ENDBRANCH  14  30
ENDBRANCH   8   9
ENDBRANCH   3   8
BRANCH   5  32
ATOM     32  O   UNL     1      -8.852 -17.944  -8.309  1.00  0.00    -0.387 OA
ATOM     33  H   UNL     1      -8.729 -18.782  -8.805  1.00  0.00    +0.211 HD
ENDBRANCH   5  32
BRANCH   7  34
ATOM     34  O   UNL     1      -9.141 -15.228  -9.075  1.00  0.00    -0.385 OA
ATOM     35  H   UNL     1      -9.045 -14.517  -9.738  1.00  0.00    +0.211 HD
ENDBRANCH   7  34
ENDBRANCH   1   2
BRANCH   1  36
ATOM     36  C   UNL     1     -11.357 -14.436 -12.232  1.00  0.00    +0.179 C 
ATOM     37  C   UNL     1     -10.121 -13.938 -12.981  1.00  0.00    +0.198 C 
ATOM     38  C   UNL     1     -12.546 -13.497 -12.521  1.00  0.00    +0.179 C 
ATOM     39  O   UNL     1     -10.288 -13.968 -14.403  1.00  0.00    -0.347 OA
ATOM     40  C   UNL     1     -12.415 -12.796 -13.884  1.00  0.00    +0.202 C 
ATOM     41  C   UNL     1     -11.619 -13.687 -14.860  1.00  0.00    +0.282 C 
BRANCH  38  42
ATOM     42  O   UNL     1     -12.674 -12.482 -11.503  1.00  0.00    -0.387 OA
ATOM     43  H   UNL     1     -12.194 -11.698 -11.849  1.00  0.00    +0.211 HD
ENDBRANCH  38  42
BRANCH  40  44
ATOM     44  O   UNL     1     -11.755 -11.526 -13.695  1.00  0.00    -0.385 OA
ATOM     45  H   UNL     1     -12.485 -10.872 -13.664  1.00  0.00    +0.211 HD
ENDBRANCH  40  44
BRANCH  41  46
ATOM     46  O   UNL     1     -11.569 -13.051 -16.137  1.00  0.00    -0.341 OA
BRANCH  46  47
ATOM     47  C   UNL     1     -10.295 -12.470 -16.459  1.00  0.00    +0.178 C 
BRANCH  47  48
ATOM     48  C   UNL     1      -9.619 -13.355 -17.512  1.00  0.00    +0.191 C 
BRANCH  48  49
ATOM     49  O   UNL     1     -10.578 -13.908 -18.404  1.00  0.00    -0.394 OA
ATOM     50  H   UNL     1     -11.454 -13.632 -18.078  1.00  0.00    +0.210 HD
ENDBRANCH  48  49
ENDBRANCH  47  48
BRANCH  47  51
ATOM     51  C   UNL     1     -10.488 -10.995 -16.904  1.00  0.00    +0.181 C 
BRANCH  51  52
ATOM     52  C   UNL     1     -11.888 -10.667 -17.449  1.00  0.00    +0.209 C 
BRANCH  52  53
ATOM     53  C   UNL     1     -11.909  -9.232 -17.958  1.00  0.00    +0.258 C 
ATOM     54  O   UNL     1     -10.881  -8.625 -18.262  1.00  0.00    -0.300 OA
ENDBRANCH  52  53
BRANCH  52  55
ATOM     55  O   UNL     1     -12.265 -11.531 -18.522  1.00  0.00    -0.383 OA
ATOM     56  H   UNL     1     -13.131 -11.911 -18.268  1.00  0.00    +0.211 HD
ENDBRANCH  52  55
ENDBRANCH  51  52
BRANCH  51  57
ATOM     57  O   UNL     1     -10.229 -10.128 -15.777  1.00  0.00    -0.387 OA
ATOM     58  H   UNL     1     -10.850 -10.395 -15.063  1.00  0.00    +0.211 HD
ENDBRANCH  51  57
ENDBRANCH  47  51
ENDBRANCH  46  47
ENDBRANCH  41  46
ENDBRANCH   1  36
TORSDOF 24
ENDMDL
