MODEL 1
REMARK VINA RESULT:    -7.389      0.000      0.000
REMARK INTER + INTRA:         -12.078
REMARK INTER:                 -10.845
REMARK INTRA:                  -1.232
REMARK UNBOUND:                -1.232
REMARK SMILES O=S(=O)(O)OC[C@@H]1O[C@H](O[C@H]2[C@@H]3OC[C@H]2O[C@@H](O)[C@H]3O)[C@@H](O)[C@H](O)[C@@H]1O
REMARK SMILES IDX 9 1 21 2 23 3 25 4 7 5 8 6 10 7 11 8 14 9 15 10 13 11 16 12
REMARK SMILES IDX 12 13 17 14 19 15 18 16 20 18 22 20 24 22 6 24 5 25 2 26
REMARK SMILES IDX 1 27 3 28 4 29 26 31
REMARK H PARENT 18 17 20 19 22 21 24 23 4 30 26 32
ROOT
ATOM      1  C   UNL     1       3.193   8.407  -6.100  1.00  0.00    +0.282 C 
ATOM      2  C   UNL     1       3.072   9.923  -6.350  1.00  0.00    +0.202 C 
ATOM      3  C   UNL     1       4.428  10.556  -6.091  1.00  0.00    +0.179 C 
ATOM      4  C   UNL     1       5.437  10.028  -7.115  1.00  0.00    +0.177 C 
ATOM      5  C   UNL     1       5.216   8.537  -7.465  1.00  0.00    +0.180 C 
ATOM      6  O   UNL     1       4.454   7.844  -6.458  1.00  0.00    -0.341 OA
ENDROOT
BRANCH   1   7
ATOM      7  O   UNL     1       2.089   7.767  -6.746  1.00  0.00    -0.341 OA
BRANCH   7   8
ATOM      8  C   UNL     1       2.357   6.413  -7.094  1.00  0.00    +0.184 C 
ATOM      9  C   UNL     1       1.826   4.395  -8.162  1.00  0.00    +0.195 C 
ATOM     10  C   UNL     1       1.580   5.899  -8.296  1.00  0.00    +0.179 C 
ATOM     11  O   UNL     1       1.914   4.134  -6.737  1.00  0.00    -0.370 OA
ATOM     12  O   UNL     1       0.192   6.262  -8.190  1.00  0.00    -0.342 OA
ATOM     13  C   UNL     1       1.812   5.420  -6.073  1.00  0.00    +0.184 C 
ATOM     14  C   UNL     1      -0.503   5.767  -7.050  1.00  0.00    +0.279 C 
ATOM     15  C   UNL     1       0.343   5.738  -5.758  1.00  0.00    +0.202 C 
BRANCH  14  16
ATOM     16  O   UNL     1      -1.000   4.465  -7.348  1.00  0.00    -0.366 OA
ATOM     17  H   UNL     1      -0.210   3.895  -7.346  1.00  0.00    +0.213 HD
ENDBRANCH  14  16
BRANCH  15  18
ATOM     18  O   UNL     1      -0.183   4.785  -4.825  1.00  0.00    -0.385 OA
ATOM     19  H   UNL     1       0.602   4.505  -4.306  1.00  0.00    +0.211 HD
ENDBRANCH  15  18
ENDBRANCH   7   8
ENDBRANCH   1   7
BRANCH   2  20
ATOM     20  O   UNL     1       2.097  10.522  -5.479  1.00  0.00    -0.385 OA
ATOM     21  H   UNL     1       1.261  10.042  -5.639  1.00  0.00    +0.211 HD
ENDBRANCH   2  20
BRANCH   3  22
ATOM     22  O   UNL     1       4.344  11.986  -6.204  1.00  0.00    -0.387 OA
ATOM     23  H   UNL     1       5.043  12.228  -6.848  1.00  0.00    +0.211 HD
ENDBRANCH   3  22
BRANCH   5  24
ATOM     24  C   UNL     1       4.669   8.273  -8.880  1.00  0.00    +0.220 C 
BRANCH  24  25
ATOM     25  O   UNL     1       5.711   7.706  -9.670  1.00  0.00    -0.245 OA
BRANCH  25  26
ATOM     26  S   UNL     1       6.444   8.664 -10.757  1.00  0.00    +0.397 S 
ATOM     27  O   UNL     1       6.746   7.911 -11.954  1.00  0.00    -0.169 OA
ATOM     28  O   UNL     1       7.442   9.450 -10.069  1.00  0.00    -0.169 OA
BRANCH  26  29
ATOM     29  O   UNL     1       5.276   9.711 -11.120  1.00  0.00    -0.264 OA
ATOM     30  H   UNL     1       5.704  10.476 -11.555  1.00  0.00    +0.236 HD
ENDBRANCH  26  29
ENDBRANCH  25  26
ENDBRANCH  24  25
ENDBRANCH   5  24
BRANCH   4  31
ATOM     31  O   UNL     1       5.393  10.852  -8.285  1.00  0.00    -0.387 OA
ATOM     32  H   UNL     1       6.307  11.202  -8.381  1.00  0.00    +0.211 HD
ENDBRANCH   4  31
TORSDOF 11
ENDMDL
MODEL 2
REMARK VINA RESULT:    -7.339      6.766      9.029
REMARK INTER + INTRA:         -12.004
REMARK INTER:                 -10.830
REMARK INTRA:                  -1.175
REMARK UNBOUND:                -1.232
REMARK SMILES O=S(=O)(O)OC[C@@H]1O[C@H](O[C@H]2[C@@H]3OC[C@H]2O[C@@H](O)[C@H]3O)[C@@H](O)[C@H](O)[C@@H]1O
REMARK SMILES IDX 9 1 21 2 23 3 25 4 7 5 8 6 10 7 11 8 14 9 15 10 13 11 16 12
REMARK SMILES IDX 12 13 17 14 19 15 18 16 20 18 22 20 24 22 6 24 5 25 2 26
REMARK SMILES IDX 1 27 3 28 4 29 26 31
REMARK H PARENT 18 17 20 19 22 21 24 23 4 30 26 32
ROOT
ATOM      1  C   UNL     1      -4.302   6.049  -9.548  1.00  0.00    +0.282 C 
ATOM      2  C   UNL     1      -3.181   5.975 -10.603  1.00  0.00    +0.202 C 
ATOM      3  C   UNL     1      -3.798   5.535 -11.920  1.00  0.00    +0.179 C 
ATOM      4  C   UNL     1      -4.777   6.608 -12.404  1.00  0.00    +0.177 C 
ATOM      5  C   UNL     1      -5.559   7.275 -11.247  1.00  0.00    +0.180 C 
ATOM      6  O   UNL     1      -5.568   6.468 -10.054  1.00  0.00    -0.341 OA
ENDROOT
BRANCH   1   7
ATOM      7  O   UNL     1      -3.832   6.858  -8.467  1.00  0.00    -0.341 OA
BRANCH   7   8
ATOM      8  C   UNL     1      -4.497   6.583  -7.238  1.00  0.00    +0.184 C 
ATOM      9  C   UNL     1      -4.626   6.582  -4.898  1.00  0.00    +0.195 C 
ATOM     10  C   UNL     1      -3.965   7.355  -6.040  1.00  0.00    +0.179 C 
ATOM     11  O   UNL     1      -4.712   5.206  -5.348  1.00  0.00    -0.370 OA
ATOM     12  O   UNL     1      -2.527   7.301  -6.007  1.00  0.00    -0.342 OA
ATOM     13  C   UNL     1      -4.210   5.183  -6.709  1.00  0.00    +0.184 C 
ATOM     14  C   UNL     1      -1.946   6.005  -5.912  1.00  0.00    +0.279 C 
ATOM     15  C   UNL     1      -2.698   4.917  -6.711  1.00  0.00    +0.202 C 
BRANCH  14  16
ATOM     16  O   UNL     1      -1.862   5.642  -4.536  1.00  0.00    -0.366 OA
ATOM     17  H   UNL     1      -0.943   5.845  -4.286  1.00  0.00    +0.213 HD
ENDBRANCH  14  16
BRANCH  15  18
ATOM     18  O   UNL     1      -2.422   3.613  -6.181  1.00  0.00    -0.385 OA
ATOM     19  H   UNL     1      -2.879   3.609  -5.313  1.00  0.00    +0.211 HD
ENDBRANCH  15  18
ENDBRANCH   7   8
ENDBRANCH   1   7
BRANCH   2  20
ATOM     20  O   UNL     1      -2.162   5.035 -10.222  1.00  0.00    -0.385 OA
ATOM     21  H   UNL     1      -2.094   5.090  -9.248  1.00  0.00    +0.211 HD
ENDBRANCH   2  20
BRANCH   3  22
ATOM     22  O   UNL     1      -2.776   5.344 -12.914  1.00  0.00    -0.387 OA
ATOM     23  H   UNL     1      -1.981   5.076 -12.407  1.00  0.00    +0.211 HD
ENDBRANCH   3  22
BRANCH   5  24
ATOM     24  C   UNL     1      -5.166   8.734 -10.950  1.00  0.00    +0.220 C 
BRANCH  24  25
ATOM     25  O   UNL     1      -5.919   9.589 -11.807  1.00  0.00    -0.245 OA
BRANCH  25  26
ATOM     26  S   UNL     1      -5.157  10.860 -12.468  1.00  0.00    +0.397 S 
ATOM     27  O   UNL     1      -6.037  11.536 -13.394  1.00  0.00    -0.169 OA
ATOM     28  O   UNL     1      -3.821  10.448 -12.835  1.00  0.00    -0.169 OA
BRANCH  26  29
ATOM     29  O   UNL     1      -4.952  11.825 -11.196  1.00  0.00    -0.264 OA
ATOM     30  H   UNL     1      -4.049  11.661 -10.856  1.00  0.00    +0.236 HD
ENDBRANCH  26  29
ENDBRANCH  25  26
ENDBRANCH  24  25
ENDBRANCH   5  24
BRANCH   4  31
ATOM     31  O   UNL     1      -4.066   7.576 -13.182  1.00  0.00    -0.387 OA
ATOM     32  H   UNL     1      -3.737   8.232 -12.527  1.00  0.00    +0.211 HD
ENDBRANCH   4  31
TORSDOF 11
ENDMDL
MODEL 3
REMARK VINA RESULT:    -6.944      5.302      8.329
REMARK INTER + INTRA:         -11.425
REMARK INTER:                 -10.143
REMARK INTRA:                  -1.281
REMARK UNBOUND:                -1.232
REMARK SMILES O=S(=O)(O)OC[C@@H]1O[C@H](O[C@H]2[C@@H]3OC[C@H]2O[C@@H](O)[C@H]3O)[C@@H](O)[C@H](O)[C@@H]1O
REMARK SMILES IDX 9 1 21 2 23 3 25 4 7 5 8 6 10 7 11 8 14 9 15 10 13 11 16 12
REMARK SMILES IDX 12 13 17 14 19 15 18 16 20 18 22 20 24 22 6 24 5 25 2 26
REMARK SMILES IDX 1 27 3 28 4 29 26 31
REMARK H PARENT 18 17 20 19 22 21 24 23 4 30 26 32
ROOT
ATOM      1  C   UNL     1      -4.062   5.853  -8.104  1.00  0.00    +0.282 C 
ATOM      2  C   UNL     1      -4.332   6.720  -6.859  1.00  0.00    +0.202 C 
ATOM      3  C   UNL     1      -4.369   5.807  -5.645  1.00  0.00    +0.179 C 
ATOM      4  C   UNL     1      -2.988   5.177  -5.443  1.00  0.00    +0.177 C 
ATOM      5  C   UNL     1      -2.280   4.837  -6.776  1.00  0.00    +0.180 C 
ATOM      6  O   UNL     1      -3.203   4.737  -7.877  1.00  0.00    -0.341 OA
ENDROOT
BRANCH   1   7
ATOM      7  O   UNL     1      -3.599   6.717  -9.146  1.00  0.00    -0.341 OA
BRANCH   7   8
ATOM      8  C   UNL     1      -3.961   6.263 -10.446  1.00  0.00    +0.184 C 
ATOM      9  C   UNL     1      -4.221   6.562 -12.756  1.00  0.00    +0.195 C 
ATOM     10  C   UNL     1      -3.375   7.075 -11.590  1.00  0.00    +0.179 C 
ATOM     11  O   UNL     1      -5.526   6.263 -12.197  1.00  0.00    -0.370 OA
ATOM     12  O   UNL     1      -3.541   8.483 -11.343  1.00  0.00    -0.342 OA
ATOM     13  C   UNL     1      -5.431   6.505 -10.770  1.00  0.00    +0.184 C 
ATOM     14  C   UNL     1      -4.880   8.944 -11.197  1.00  0.00    +0.279 C 
ATOM     15  C   UNL     1      -5.809   7.959 -10.454  1.00  0.00    +0.202 C 
BRANCH  14  16
ATOM     16  O   UNL     1      -5.404   9.241 -12.489  1.00  0.00    -0.366 OA
ATOM     17  H   UNL     1      -6.275   8.805 -12.506  1.00  0.00    +0.213 HD
ENDBRANCH  14  16
BRANCH  15  18
ATOM     18  O   UNL     1      -7.182   8.200 -10.790  1.00  0.00    -0.385 OA
ATOM     19  H   UNL     1      -7.662   8.049  -9.947  1.00  0.00    +0.211 HD
ENDBRANCH  15  18
ENDBRANCH   7   8
ENDBRANCH   1   7
BRANCH   2  20
ATOM     20  O   UNL     1      -5.586   7.416  -6.965  1.00  0.00    -0.385 OA
ATOM     21  H   UNL     1      -5.371   8.310  -7.296  1.00  0.00    +0.211 HD
ENDBRANCH   2  20
BRANCH   3  22
ATOM     22  O   UNL     1      -4.727   6.551  -4.468  1.00  0.00    -0.387 OA
ATOM     23  H   UNL     1      -4.174   6.170  -3.754  1.00  0.00    +0.211 HD
ENDBRANCH   3  22
BRANCH   5  24
ATOM     24  C   UNL     1      -1.072   5.729  -7.119  1.00  0.00    +0.220 C 
BRANCH  24  25
ATOM     25  O   UNL     1       0.121   4.990  -6.871  1.00  0.00    -0.245 OA
BRANCH  25  26
ATOM     26  S   UNL     1       1.027   5.420  -5.595  1.00  0.00    +0.397 S 
ATOM     27  O   UNL     1       0.709   6.773  -5.198  1.00  0.00    -0.169 OA
ATOM     28  O   UNL     1       2.385   4.988  -5.836  1.00  0.00    -0.169 OA
BRANCH  26  29
ATOM     29  O   UNL     1       0.479   4.432  -4.448  1.00  0.00    -0.264 OA
ATOM     30  H   UNL     1      -0.483   4.594  -4.368  1.00  0.00    +0.236 HD
ENDBRANCH  26  29
ENDBRANCH  25  26
ENDBRANCH  24  25
ENDBRANCH   5  24
BRANCH   4  31
ATOM     31  O   UNL     1      -2.190   6.047  -4.633  1.00  0.00    -0.387 OA
ATOM     32  H   UNL     1      -2.812   6.743  -4.323  1.00  0.00    +0.211 HD
ENDBRANCH   4  31
TORSDOF 11
ENDMDL
MODEL 4
REMARK VINA RESULT:    -6.832      4.418      8.165
REMARK INTER + INTRA:         -11.259
REMARK INTER:                 -10.260
REMARK INTRA:                  -0.999
REMARK UNBOUND:                -1.232
REMARK SMILES O=S(=O)(O)OC[C@@H]1O[C@H](O[C@H]2[C@@H]3OC[C@H]2O[C@@H](O)[C@H]3O)[C@@H](O)[C@H](O)[C@@H]1O
REMARK SMILES IDX 9 1 21 2 23 3 25 4 7 5 8 6 10 7 11 8 14 9 15 10 13 11 16 12
REMARK SMILES IDX 12 13 17 14 19 15 18 16 20 18 22 20 24 22 6 24 5 25 2 26
REMARK SMILES IDX 1 27 3 28 4 29 26 31
REMARK H PARENT 18 17 20 19 22 21 24 23 4 30 26 32
ROOT
ATOM      1  C   UNL     1      -1.991   5.439  -5.914  1.00  0.00    +0.282 C 
ATOM      2  C   UNL     1      -3.000   4.346  -5.511  1.00  0.00    +0.202 C 
ATOM      3  C   UNL     1      -4.192   5.021  -4.854  1.00  0.00    +0.179 C 
ATOM      4  C   UNL     1      -4.901   5.907  -5.881  1.00  0.00    +0.177 C 
ATOM      5  C   UNL     1      -3.921   6.607  -6.852  1.00  0.00    +0.180 C 
ATOM      6  O   UNL     1      -2.581   6.670  -6.328  1.00  0.00    -0.341 OA
ENDROOT
BRANCH   1   7
ATOM      7  O   UNL     1      -1.109   4.881  -6.893  1.00  0.00    -0.341 OA
BRANCH   7   8
ATOM      8  C   UNL     1      -0.319   5.864  -7.554  1.00  0.00    +0.184 C 
ATOM      9  C   UNL     1       1.395   6.519  -9.012  1.00  0.00    +0.195 C 
ATOM     10  C   UNL     1       0.417   5.365  -8.787  1.00  0.00    +0.179 C 
ATOM     11  O   UNL     1       1.716   7.028  -7.692  1.00  0.00    -0.370 OA
ATOM     12  O   UNL     1       1.067   4.112  -8.511  1.00  0.00    -0.342 OA
ATOM     13  C   UNL     1       0.909   6.275  -6.750  1.00  0.00    +0.184 C 
ATOM     14  C   UNL     1       2.037   4.121  -7.469  1.00  0.00    +0.279 C 
ATOM     15  C   UNL     1       1.672   5.031  -6.275  1.00  0.00    +0.202 C 
BRANCH  14  16
ATOM     16  O   UNL     1       3.295   4.504  -8.019  1.00  0.00    -0.366 OA
ATOM     17  H   UNL     1       3.647   5.160  -7.390  1.00  0.00    +0.213 HD
ENDBRANCH  14  16
BRANCH  15  18
ATOM     18  O   UNL     1       2.847   5.415  -5.549  1.00  0.00    -0.385 OA
ATOM     19  H   UNL     1       2.597   6.266  -5.128  1.00  0.00    +0.211 HD
ENDBRANCH  15  18
ENDBRANCH   7   8
ENDBRANCH   1   7
BRANCH   2  20
ATOM     20  O   UNL     1      -2.419   3.410  -4.587  1.00  0.00    -0.385 OA
ATOM     21  H   UNL     1      -2.708   3.693  -3.697  1.00  0.00    +0.211 HD
ENDBRANCH   2  20
BRANCH   3  22
ATOM     22  O   UNL     1      -5.116   4.037  -4.359  1.00  0.00    -0.387 OA
ATOM     23  H   UNL     1      -5.102   4.147  -3.385  1.00  0.00    +0.211 HD
ENDBRANCH   3  22
BRANCH   5  24
ATOM     24  C   UNL     1      -3.947   6.080  -8.298  1.00  0.00    +0.220 C 
BRANCH  24  25
ATOM     25  O   UNL     1      -5.214   6.393  -8.872  1.00  0.00    -0.245 OA
BRANCH  25  26
ATOM     26  S   UNL     1      -5.252   7.481 -10.076  1.00  0.00    +0.397 S 
ATOM     27  O   UNL     1      -4.294   8.533  -9.822  1.00  0.00    -0.169 OA
ATOM     28  O   UNL     1      -6.634   7.757 -10.395  1.00  0.00    -0.169 OA
BRANCH  26  29
ATOM     29  O   UNL     1      -4.709   6.617 -11.322  1.00  0.00    -0.264 OA
ATOM     30  H   UNL     1      -3.775   6.874 -11.462  1.00  0.00    +0.236 HD
ENDBRANCH  26  29
ENDBRANCH  25  26
ENDBRANCH  24  25
ENDBRANCH   5  24
BRANCH   4  31
ATOM     31  O   UNL     1      -5.869   5.123  -6.588  1.00  0.00    -0.387 OA
ATOM     32  H   UNL     1      -6.037   4.348  -6.007  1.00  0.00    +0.211 HD
ENDBRANCH   4  31
TORSDOF 11
ENDMDL
MODEL 5
REMARK VINA RESULT:    -6.370      5.242      8.256
REMARK INTER + INTRA:         -10.582
REMARK INTER:                  -9.698
REMARK INTRA:                  -0.884
REMARK UNBOUND:                -1.232
REMARK SMILES O=S(=O)(O)OC[C@@H]1O[C@H](O[C@H]2[C@@H]3OC[C@H]2O[C@@H](O)[C@H]3O)[C@@H](O)[C@H](O)[C@@H]1O
REMARK SMILES IDX 9 1 21 2 23 3 25 4 7 5 8 6 10 7 11 8 14 9 15 10 13 11 16 12
REMARK SMILES IDX 12 13 17 14 19 15 18 16 20 18 22 20 24 22 6 24 5 25 2 26
REMARK SMILES IDX 1 27 3 28 4 29 26 31
REMARK H PARENT 18 17 20 19 22 21 24 23 4 30 26 32
ROOT
ATOM      1  C   UNL     1      -4.073   5.866  -8.197  1.00  0.00    +0.282 C 
ATOM      2  C   UNL     1      -4.399   6.742  -6.972  1.00  0.00    +0.202 C 
ATOM      3  C   UNL     1      -4.446   5.845  -5.747  1.00  0.00    +0.179 C 
ATOM      4  C   UNL     1      -3.056   5.254  -5.499  1.00  0.00    +0.177 C 
ATOM      5  C   UNL     1      -2.303   4.915  -6.808  1.00  0.00    +0.180 C 
ATOM      6  O   UNL     1      -3.193   4.776  -7.932  1.00  0.00    -0.341 OA
ENDROOT
BRANCH   1   7
ATOM      7  O   UNL     1      -3.604   6.728  -9.238  1.00  0.00    -0.341 OA
BRANCH   7   8
ATOM      8  C   UNL     1      -4.599   7.008 -10.218  1.00  0.00    +0.184 C 
ATOM      9  C   UNL     1      -6.041   6.380 -11.956  1.00  0.00    +0.195 C 
ATOM     10  C   UNL     1      -5.354   5.788 -10.725  1.00  0.00    +0.179 C 
ATOM     11  O   UNL     1      -5.130   7.382 -12.475  1.00  0.00    -0.370 OA
ATOM     12  O   UNL     1      -4.437   4.725 -11.040  1.00  0.00    -0.342 OA
ATOM     13  C   UNL     1      -4.008   7.438 -11.556  1.00  0.00    +0.184 C 
ATOM     14  C   UNL     1      -3.462   5.009 -12.038  1.00  0.00    +0.279 C 
ATOM     15  C   UNL     1      -2.916   6.453 -11.993  1.00  0.00    +0.202 C 
BRANCH  14  16
ATOM     16  O   UNL     1      -4.023   4.729 -13.318  1.00  0.00    -0.366 OA
ATOM     17  H   UNL     1      -4.967   4.952 -13.225  1.00  0.00    +0.213 HD
ENDBRANCH  14  16
BRANCH  15  18
ATOM     18  O   UNL     1      -2.382   6.836 -13.268  1.00  0.00    -0.385 OA
ATOM     19  H   UNL     1      -1.465   6.487 -13.255  1.00  0.00    +0.211 HD
ENDBRANCH  15  18
ENDBRANCH   7   8
ENDBRANCH   1   7
BRANCH   2  20
ATOM     20  O   UNL     1      -5.667   7.404  -7.121  1.00  0.00    -0.385 OA
ATOM     21  H   UNL     1      -5.467   8.299  -7.459  1.00  0.00    +0.211 HD
ENDBRANCH   2  20
BRANCH   3  22
ATOM     22  O   UNL     1      -4.855   6.595  -4.591  1.00  0.00    -0.387 OA
ATOM     23  H   UNL     1      -4.574   6.049  -3.826  1.00  0.00    +0.211 HD
ENDBRANCH   3  22
BRANCH   5  24
ATOM     24  C   UNL     1      -1.110   5.833  -7.131  1.00  0.00    +0.220 C 
BRANCH  24  25
ATOM     25  O   UNL     1       0.095   5.120  -6.864  1.00  0.00    -0.245 OA
BRANCH  25  26
ATOM     26  S   UNL     1       1.039   5.654  -5.655  1.00  0.00    +0.397 S 
ATOM     27  O   UNL     1       0.996   7.098  -5.596  1.00  0.00    -0.169 OA
ATOM     28  O   UNL     1       2.284   4.922  -5.694  1.00  0.00    -0.169 OA
BRANCH  26  29
ATOM     29  O   UNL     1       0.272   5.089  -4.358  1.00  0.00    -0.264 OA
ATOM     30  H   UNL     1      -0.687   5.135  -4.551  1.00  0.00    +0.236 HD
ENDBRANCH  26  29
ENDBRANCH  25  26
ENDBRANCH  24  25
ENDBRANCH   5  24
BRANCH   4  31
ATOM     31  O   UNL     1      -2.302   6.155  -4.680  1.00  0.00    -0.387 OA
ATOM     32  H   UNL     1      -2.422   7.036  -5.100  1.00  0.00    +0.211 HD
ENDBRANCH   4  31
TORSDOF 11
ENDMDL
MODEL 6
REMARK VINA RESULT:    -6.332      6.841     10.360
REMARK INTER + INTRA:         -10.526
REMARK INTER:                  -9.894
REMARK INTRA:                  -0.631
REMARK UNBOUND:                -1.232
REMARK SMILES O=S(=O)(O)OC[C@@H]1O[C@H](O[C@H]2[C@@H]3OC[C@H]2O[C@@H](O)[C@H]3O)[C@@H](O)[C@H](O)[C@@H]1O
REMARK SMILES IDX 9 1 21 2 23 3 25 4 7 5 8 6 10 7 11 8 14 9 15 10 13 11 16 12
REMARK SMILES IDX 12 13 17 14 19 15 18 16 20 18 22 20 24 22 6 24 5 25 2 26
REMARK SMILES IDX 1 27 3 28 4 29 26 31
REMARK H PARENT 18 17 20 19 22 21 24 23 4 30 26 32
ROOT
ATOM      1  C   UNL     1      -3.847   6.181  -7.860  1.00  0.00    +0.282 C 
ATOM      2  C   UNL     1      -2.541   5.367  -7.772  1.00  0.00    +0.202 C 
ATOM      3  C   UNL     1      -1.900   5.645  -6.423  1.00  0.00    +0.179 C 
ATOM      4  C   UNL     1      -2.812   5.122  -5.311  1.00  0.00    +0.177 C 
ATOM      5  C   UNL     1      -4.315   5.313  -5.624  1.00  0.00    +0.180 C 
ATOM      6  O   UNL     1      -4.542   6.326  -6.623  1.00  0.00    -0.341 OA
ENDROOT
BRANCH   1   7
ATOM      7  O   UNL     1      -4.652   5.606  -8.894  1.00  0.00    -0.341 OA
BRANCH   7   8
ATOM      8  C   UNL     1      -5.668   6.487  -9.361  1.00  0.00    +0.184 C 
ATOM      9  C   UNL     1      -7.123   7.295 -11.011  1.00  0.00    +0.195 C 
ATOM     10  C   UNL     1      -6.403   6.009 -10.603  1.00  0.00    +0.179 C 
ATOM     11  O   UNL     1      -6.243   8.382 -10.624  1.00  0.00    -0.370 OA
ATOM     12  O   UNL     1      -5.467   5.542 -11.592  1.00  0.00    -0.342 OA
ATOM     13  C   UNL     1      -5.109   7.776  -9.952  1.00  0.00    +0.184 C 
ATOM     14  C   UNL     1      -4.515   6.493 -12.057  1.00  0.00    +0.279 C 
ATOM     15  C   UNL     1      -4.001   7.457 -10.965  1.00  0.00    +0.202 C 
BRANCH  14  16
ATOM     16  O   UNL     1      -5.091   7.226 -13.136  1.00  0.00    -0.366 OA
ATOM     17  H   UNL     1      -5.337   8.083 -12.745  1.00  0.00    +0.213 HD
ENDBRANCH  14  16
BRANCH  15  18
ATOM     18  O   UNL     1      -3.497   8.666 -11.549  1.00  0.00    -0.385 OA
ATOM     19  H   UNL     1      -2.813   8.968 -10.913  1.00  0.00    +0.211 HD
ENDBRANCH  15  18
ENDBRANCH   7   8
ENDBRANCH   1   7
BRANCH   2  20
ATOM     20  O   UNL     1      -1.623   5.731  -8.816  1.00  0.00    -0.385 OA
ATOM     21  H   UNL     1      -1.566   6.707  -8.798  1.00  0.00    +0.211 HD
ENDBRANCH   2  20
BRANCH   3  22
ATOM     22  O   UNL     1      -0.621   4.994  -6.332  1.00  0.00    -0.387 OA
ATOM     23  H   UNL     1      -0.153   5.461  -5.609  1.00  0.00    +0.211 HD
ENDBRANCH   3  22
BRANCH   5  24
ATOM     24  C   UNL     1      -5.087   4.018  -5.935  1.00  0.00    +0.220 C 
BRANCH  24  25
ATOM     25  O   UNL     1      -6.484   4.296  -5.869  1.00  0.00    -0.245 OA
BRANCH  25  26
ATOM     26  S   UNL     1      -7.291   3.811  -4.546  1.00  0.00    +0.397 S 
ATOM     27  O   UNL     1      -7.365   2.368  -4.515  1.00  0.00    -0.169 OA
ATOM     28  O   UNL     1      -8.460   4.647  -4.396  1.00  0.00    -0.169 OA
BRANCH  26  29
ATOM     29  O   UNL     1      -6.301   4.275  -3.364  1.00  0.00    -0.264 OA
ATOM     30  H   UNL     1      -6.144   3.491  -2.799  1.00  0.00    +0.236 HD
ENDBRANCH  26  29
ENDBRANCH  25  26
ENDBRANCH  24  25
ENDBRANCH   5  24
BRANCH   4  31
ATOM     31  O   UNL     1      -2.502   3.747  -5.057  1.00  0.00    -0.387 OA
ATOM     32  H   UNL     1      -3.351   3.348  -4.762  1.00  0.00    +0.211 HD
ENDBRANCH   4  31
TORSDOF 11
ENDMDL
MODEL 7
REMARK VINA RESULT:    -6.052      8.637     11.484
REMARK INTER + INTRA:         -10.114
REMARK INTER:                  -8.452
REMARK INTRA:                  -1.662
REMARK UNBOUND:                -1.232
REMARK SMILES O=S(=O)(O)OC[C@@H]1O[C@H](O[C@H]2[C@@H]3OC[C@H]2O[C@@H](O)[C@H]3O)[C@@H](O)[C@H](O)[C@@H]1O
REMARK SMILES IDX 9 1 21 2 23 3 25 4 7 5 8 6 10 7 11 8 14 9 15 10 13 11 16 12
REMARK SMILES IDX 12 13 17 14 19 15 18 16 20 18 22 20 24 22 6 24 5 25 2 26
REMARK SMILES IDX 1 27 3 28 4 29 26 31
REMARK H PARENT 18 17 20 19 22 21 24 23 4 30 26 32
ROOT
ATOM      1  C   UNL     1      -2.272   4.487 -15.280  1.00  0.00    +0.282 C 
ATOM      2  C   UNL     1      -1.398   5.222 -16.314  1.00  0.00    +0.202 C 
ATOM      3  C   UNL     1      -1.126   4.270 -17.466  1.00  0.00    +0.179 C 
ATOM      4  C   UNL     1      -2.444   3.938 -18.171  1.00  0.00    +0.177 C 
ATOM      5  C   UNL     1      -3.636   3.814 -17.192  1.00  0.00    +0.180 C 
ATOM      6  O   UNL     1      -3.210   3.569 -15.838  1.00  0.00    -0.341 OA
ENDROOT
BRANCH   1   7
ATOM      7  O   UNL     1      -2.881   5.474 -14.442  1.00  0.00    -0.341 OA
BRANCH   7   8
ATOM      8  C   UNL     1      -2.333   5.503 -13.128  1.00  0.00    +0.184 C 
ATOM      9  C   UNL     1      -2.488   5.858 -10.817  1.00  0.00    +0.195 C 
ATOM     10  C   UNL     1      -3.361   5.461 -12.008  1.00  0.00    +0.179 C 
ATOM     11  O   UNL     1      -1.494   6.776 -11.342  1.00  0.00    -0.370 OA
ATOM     12  O   UNL     1      -4.426   6.393 -12.270  1.00  0.00    -0.342 OA
ATOM     13  C   UNL     1      -1.715   6.850 -12.774  1.00  0.00    +0.184 C 
ATOM     14  C   UNL     1      -4.051   7.761 -12.390  1.00  0.00    +0.279 C 
ATOM     15  C   UNL     1      -2.697   7.984 -13.099  1.00  0.00    +0.202 C 
BRANCH  14  16
ATOM     16  O   UNL     1      -4.033   8.346 -11.090  1.00  0.00    -0.366 OA
ATOM     17  H   UNL     1      -4.893   8.795 -11.012  1.00  0.00    +0.213 HD
ENDBRANCH  14  16
BRANCH  15  18
ATOM     18  O   UNL     1      -2.133   9.251 -12.735  1.00  0.00    -0.385 OA
ATOM     19  H   UNL     1      -1.507   9.032 -12.012  1.00  0.00    +0.211 HD
ENDBRANCH  15  18
ENDBRANCH   7   8
ENDBRANCH   1   7
BRANCH   2  20
ATOM     20  O   UNL     1      -0.148   5.641 -15.742  1.00  0.00    -0.385 OA
ATOM     21  H   UNL     1      -0.261   6.583 -15.505  1.00  0.00    +0.211 HD
ENDBRANCH   2  20
BRANCH   3  22
ATOM     22  O   UNL     1      -0.223   4.870 -18.410  1.00  0.00    -0.387 OA
ATOM     23  H   UNL     1      -0.579   5.771 -18.559  1.00  0.00    +0.211 HD
ENDBRANCH   3  22
BRANCH   5  24
ATOM     24  C   UNL     1      -4.667   4.955 -17.271  1.00  0.00    +0.220 C 
BRANCH  24  25
ATOM     25  O   UNL     1      -5.949   4.430 -16.935  1.00  0.00    -0.245 OA
BRANCH  25  26
ATOM     26  S   UNL     1      -6.695   5.034 -15.626  1.00  0.00    +0.397 S 
ATOM     27  O   UNL     1      -7.910   4.297 -15.366  1.00  0.00    -0.169 OA
ATOM     28  O   UNL     1      -6.674   6.477 -15.717  1.00  0.00    -0.169 OA
BRANCH  26  29
ATOM     29  O   UNL     1      -5.649   4.682 -14.454  1.00  0.00    -0.264 OA
ATOM     30  H   UNL     1      -5.141   3.900 -14.751  1.00  0.00    +0.236 HD
ENDBRANCH  26  29
ENDBRANCH  25  26
ENDBRANCH  24  25
ENDBRANCH   5  24
BRANCH   4  31
ATOM     31  O   UNL     1      -2.697   4.921 -19.181  1.00  0.00    -0.387 OA
ATOM     32  H   UNL     1      -3.662   4.859 -19.356  1.00  0.00    +0.211 HD
ENDBRANCH   4  31
TORSDOF 11
ENDMDL
MODEL 8
REMARK VINA RESULT:    -6.020     14.836     17.678
REMARK INTER + INTRA:         -10.069
REMARK INTER:                  -9.111
REMARK INTRA:                  -0.957
REMARK UNBOUND:                -1.232
REMARK SMILES O=S(=O)(O)OC[C@@H]1O[C@H](O[C@H]2[C@@H]3OC[C@H]2O[C@@H](O)[C@H]3O)[C@@H](O)[C@H](O)[C@@H]1O
REMARK SMILES IDX 9 1 21 2 23 3 25 4 7 5 8 6 10 7 11 8 14 9 15 10 13 11 16 12
REMARK SMILES IDX 12 13 17 14 19 15 18 16 20 18 22 20 24 22 6 24 5 25 2 26
REMARK SMILES IDX 1 27 3 28 4 29 26 31
REMARK H PARENT 18 17 20 19 22 21 24 23 4 30 26 32
ROOT
ATOM      1  C   UNL     1     -11.619   3.113  -3.963  1.00  0.00    +0.282 C 
ATOM      2  C   UNL     1     -10.114   2.796  -3.871  1.00  0.00    +0.202 C 
ATOM      3  C   UNL     1      -9.725   2.766  -2.402  1.00  0.00    +0.179 C 
ATOM      4  C   UNL     1     -10.454   1.610  -1.710  1.00  0.00    +0.177 C 
ATOM      5  C   UNL     1     -11.891   1.399  -2.243  1.00  0.00    +0.180 C 
ATOM      6  O   UNL     1     -12.408   2.568  -2.907  1.00  0.00    -0.341 OA
ENDROOT
BRANCH   1   7
ATOM      7  O   UNL     1     -12.070   2.718  -5.262  1.00  0.00    -0.341 OA
BRANCH   7   8
ATOM      8  C   UNL     1     -13.398   3.148  -5.543  1.00  0.00    +0.184 C 
ATOM      9  C   UNL     1     -15.186   3.560  -7.002  1.00  0.00    +0.195 C 
ATOM     10  C   UNL     1     -13.958   2.657  -6.870  1.00  0.00    +0.179 C 
ATOM     11  O   UNL     1     -14.821   4.819  -6.380  1.00  0.00    -0.370 OA
ATOM     12  O   UNL     1     -12.995   2.846  -7.922  1.00  0.00    -0.342 OA
ATOM     13  C   UNL     1     -13.487   4.641  -5.837  1.00  0.00    +0.184 C 
ATOM     14  C   UNL     1     -12.577   4.186  -8.160  1.00  0.00    +0.279 C 
ATOM     15  C   UNL     1     -12.434   5.039  -6.880  1.00  0.00    +0.202 C 
BRANCH  14  16
ATOM     16  O   UNL     1     -13.493   4.797  -9.065  1.00  0.00    -0.366 OA
ATOM     17  H   UNL     1     -14.096   5.307  -8.495  1.00  0.00    +0.213 HD
ENDBRANCH  14  16
BRANCH  15  18
ATOM     18  O   UNL     1     -12.538   6.436  -7.185  1.00  0.00    -0.385 OA
ATOM     19  H   UNL     1     -13.436   6.528  -7.570  1.00  0.00    +0.211 HD
ENDBRANCH  15  18
ENDBRANCH   7   8
ENDBRANCH   1   7
BRANCH   2  20
ATOM     20  O   UNL     1      -9.326   3.790  -4.547  1.00  0.00    -0.385 OA
ATOM     21  H   UNL     1      -9.006   3.369  -5.369  1.00  0.00    +0.211 HD
ENDBRANCH   2  20
BRANCH   3  22
ATOM     22  O   UNL     1      -8.306   2.582  -2.263  1.00  0.00    -0.387 OA
ATOM     23  H   UNL     1      -7.947   3.487  -2.148  1.00  0.00    +0.211 HD
ENDBRANCH   3  22
BRANCH   5  24
ATOM     24  C   UNL     1     -12.094   0.125  -3.084  1.00  0.00    +0.220 C 
BRANCH  24  25
ATOM     25  O   UNL     1     -13.493  -0.070  -3.280  1.00  0.00    -0.245 OA
BRANCH  25  26
ATOM     26  S   UNL     1     -13.957  -1.167  -4.382  1.00  0.00    +0.397 S 
ATOM     27  O   UNL     1     -14.061  -0.547  -5.683  1.00  0.00    -0.169 OA
ATOM     28  O   UNL     1     -15.030  -1.954  -3.816  1.00  0.00    -0.169 OA
BRANCH  26  29
ATOM     29  O   UNL     1     -12.693  -2.163  -4.415  1.00  0.00    -0.264 OA
ATOM     30  H   UNL     1     -12.350  -2.158  -5.332  1.00  0.00    +0.236 HD
ENDBRANCH  26  29
ENDBRANCH  25  26
ENDBRANCH  24  25
ENDBRANCH   5  24
BRANCH   4  31
ATOM     31  O   UNL     1      -9.669   0.419  -1.834  1.00  0.00    -0.387 OA
ATOM     32  H   UNL     1      -8.835   0.712  -2.266  1.00  0.00    +0.211 HD
ENDBRANCH   4  31
TORSDOF 11
ENDMDL
MODEL 9
REMARK VINA RESULT:    -5.899      8.322     11.106
REMARK INTER + INTRA:          -9.890
REMARK INTER:                  -8.399
REMARK INTRA:                  -1.491
REMARK UNBOUND:                -1.232
REMARK SMILES O=S(=O)(O)OC[C@@H]1O[C@H](O[C@H]2[C@@H]3OC[C@H]2O[C@@H](O)[C@H]3O)[C@@H](O)[C@H](O)[C@@H]1O
REMARK SMILES IDX 9 1 21 2 23 3 25 4 7 5 8 6 10 7 11 8 14 9 15 10 13 11 16 12
REMARK SMILES IDX 12 13 17 14 19 15 18 16 20 18 22 20 24 22 6 24 5 25 2 26
REMARK SMILES IDX 1 27 3 28 4 29 26 31
REMARK H PARENT 18 17 20 19 22 21 24 23 4 30 26 32
ROOT
ATOM      1  C   UNL     1      -2.837   5.934 -13.924  1.00  0.00    +0.282 C 
ATOM      2  C   UNL     1      -1.724   6.470 -14.845  1.00  0.00    +0.202 C 
ATOM      3  C   UNL     1      -0.898   5.290 -15.328  1.00  0.00    +0.179 C 
ATOM      4  C   UNL     1      -1.775   4.380 -16.193  1.00  0.00    +0.177 C 
ATOM      5  C   UNL     1      -3.232   4.283 -15.681  1.00  0.00    +0.180 C 
ATOM      6  O   UNL     1      -3.353   4.657 -14.296  1.00  0.00    -0.341 OA
ENDROOT
BRANCH   1   7
ATOM      7  O   UNL     1      -3.848   6.942 -13.827  1.00  0.00    -0.341 OA
BRANCH   7   8
ATOM      8  C   UNL     1      -4.332   7.117 -12.500  1.00  0.00    +0.184 C 
ATOM      9  C   UNL     1      -5.578   8.255 -10.873  1.00  0.00    +0.195 C 
ATOM     10  C   UNL     1      -5.559   8.007 -12.382  1.00  0.00    +0.179 C 
ATOM     11  O   UNL     1      -4.189   8.266 -10.456  1.00  0.00    -0.370 OA
ATOM     12  O   UNL     1      -5.384   9.208 -13.155  1.00  0.00    -0.342 OA
ATOM     13  C   UNL     1      -3.400   7.958 -11.635  1.00  0.00    +0.184 C 
ATOM     14  C   UNL     1      -4.281  10.034 -12.796  1.00  0.00    +0.279 C 
ATOM     15  C   UNL     1      -3.020   9.251 -12.370  1.00  0.00    +0.202 C 
BRANCH  14  16
ATOM     16  O   UNL     1      -4.692  10.918 -11.756  1.00  0.00    -0.366 OA
ATOM     17  H   UNL     1      -3.969  11.567 -11.687  1.00  0.00    +0.213 HD
ENDBRANCH  14  16
BRANCH  15  18
ATOM     18  O   UNL     1      -2.171  10.060 -11.545  1.00  0.00    -0.385 OA
ATOM     19  H   UNL     1      -2.765  10.772 -11.222  1.00  0.00    +0.211 HD
ENDBRANCH  15  18
ENDBRANCH   7   8
ENDBRANCH   1   7
BRANCH   2  20
ATOM     20  O   UNL     1      -0.867   7.393 -14.150  1.00  0.00    -0.385 OA
ATOM     21  H   UNL     1      -1.171   7.398 -13.221  1.00  0.00    +0.211 HD
ENDBRANCH   2  20
BRANCH   3  22
ATOM     22  O   UNL     1       0.222   5.746 -16.104  1.00  0.00    -0.387 OA
ATOM     23  H   UNL     1       0.689   4.927 -16.375  1.00  0.00    +0.211 HD
ENDBRANCH   3  22
BRANCH   5  24
ATOM     24  C   UNL     1      -4.281   4.990 -16.559  1.00  0.00    +0.220 C 
BRANCH  24  25
ATOM     25  O   UNL     1      -5.522   4.301 -16.425  1.00  0.00    -0.245 OA
BRANCH  25  26
ATOM     26  S   UNL     1      -6.688   5.007 -15.544  1.00  0.00    +0.397 S 
ATOM     27  O   UNL     1      -7.938   4.304 -15.725  1.00  0.00    -0.169 OA
ATOM     28  O   UNL     1      -6.578   6.438 -15.709  1.00  0.00    -0.169 OA
BRANCH  26  29
ATOM     29  O   UNL     1      -6.185   4.729 -14.040  1.00  0.00    -0.264 OA
ATOM     30  H   UNL     1      -5.306   4.303 -14.108  1.00  0.00    +0.236 HD
ENDBRANCH  26  29
ENDBRANCH  25  26
ENDBRANCH  24  25
ENDBRANCH   5  24
BRANCH   4  31
ATOM     31  O   UNL     1      -1.726   4.835 -17.550  1.00  0.00    -0.387 OA
ATOM     32  H   UNL     1      -1.079   5.575 -17.544  1.00  0.00    +0.211 HD
ENDBRANCH   4  31
TORSDOF 11
ENDMDL
