MODEL 1
REMARK VINA RESULT:    -9.676      0.000      0.000
REMARK INTER + INTRA:         -22.954
REMARK INTER:                 -19.857
REMARK INTRA:                  -3.097
REMARK UNBOUND:                -3.097
REMARK SMILES O=C[C@@H](O)[C@@H](O)[C@H](CO)O[C@H]1OC[C@@H](O[C@@H]2OC[C@H](O[C@H]3OC[C@H](O[C@H]4OC[C@H](O)[C@H](O)[C@@H]4O)[C@@H](O)[C@H]3O)[C@H](O)[C@@H]2O)[C@@H](O)[C@H]1O
REMARK SMILES IDX 15 1 16 2 19 3 18 4 39 5 17 6 41 7 20 8 21 9 24 10 23 11
REMARK SMILES IDX 35 12 22 13 37 14 25 15 26 16 28 17 29 18 27 19 31 20 33 21
REMARK SMILES IDX 30 22 32 24 34 26 36 28 38 30 40 32 42 34 14 36 13 37 43 38
REMARK SMILES IDX 12 39 45 40 11 41 44 42 46 44 10 46 7 47 8 48 9 49 5 51 3 52
REMARK SMILES IDX 2 53 1 54 4 55 6 57
REMARK H PARENT 30 23 32 25 34 27 36 29 38 31 40 33 42 35 44 43 46 45 9 50
REMARK H PARENT 4 56 6 58
ROOT
ATOM      1  O   UNL     1       6.935   4.138  -6.482  1.00  0.00    -0.341 OA
ENDROOT
BRANCH   1   2
ATOM      2  C   UNL     1       8.351   4.312  -6.597  1.00  0.00    +0.282 C 
ATOM      3  C   UNL     1      10.702   2.514  -6.778  1.00  0.00    +0.179 C 
ATOM      4  C   UNL     1       9.448   2.473  -7.666  1.00  0.00    +0.198 C 
ATOM      5  C   UNL     1      10.527   3.543  -5.636  1.00  0.00    +0.179 C 
ATOM      6  O   UNL     1       8.870   3.766  -7.816  1.00  0.00    -0.347 OA
ATOM      7  C   UNL     1       9.048   3.775  -5.321  1.00  0.00    +0.202 C 
BRANCH   3   8
ATOM      8  O   UNL     1      10.998   1.237  -6.188  1.00  0.00    -0.341 OA
BRANCH   8   9
ATOM      9  C   UNL     1      11.858   0.405  -6.975  1.00  0.00    +0.282 C 
ATOM     10  C   UNL     1      13.853   1.086  -5.175  1.00  0.00    +0.179 C 
ATOM     11  C   UNL     1      14.117   1.200  -6.682  1.00  0.00    +0.198 C 
ATOM     12  C   UNL     1      13.099  -0.225  -4.870  1.00  0.00    +0.179 C 
ATOM     13  O   UNL     1      12.945   1.168  -7.500  1.00  0.00    -0.347 OA
ATOM     14  C   UNL     1      12.362  -0.767  -6.108  1.00  0.00    +0.202 C 
BRANCH  10  15
ATOM     15  O   UNL     1      15.119   1.180  -4.505  1.00  0.00    -0.341 OA
BRANCH  15  16
ATOM     16  C   UNL     1      15.173   2.219  -3.519  1.00  0.00    +0.282 C 
ATOM     17  C   UNL     1      14.146   4.288  -2.980  1.00  0.00    +0.198 C 
ATOM     18  C   UNL     1      13.251   3.721  -1.873  1.00  0.00    +0.171 C 
ATOM     19  O   UNL     1      14.378   3.314  -3.993  1.00  0.00    -0.347 OA
ATOM     20  C   UNL     1      13.218   2.183  -1.913  1.00  0.00    +0.179 C 
ATOM     21  C   UNL     1      14.620   1.637  -2.192  1.00  0.00    +0.202 C 
BRANCH  18  22
ATOM     22  O   UNL     1      13.721   4.151  -0.584  1.00  0.00    -0.388 OA
ATOM     23  H   UNL     1      12.920   4.318  -0.042  1.00  0.00    +0.211 HD
ENDBRANCH  18  22
BRANCH  20  24
ATOM     24  O   UNL     1      12.756   1.669  -0.650  1.00  0.00    -0.387 OA
ATOM     25  H   UNL     1      11.853   2.031  -0.525  1.00  0.00    +0.211 HD
ENDBRANCH  20  24
BRANCH  21  26
ATOM     26  O   UNL     1      15.463   2.018  -1.077  1.00  0.00    -0.385 OA
ATOM     27  H   UNL     1      16.332   1.617  -1.287  1.00  0.00    +0.211 HD
ENDBRANCH  21  26
ENDBRANCH  15  16
ENDBRANCH  10  15
BRANCH  12  28
ATOM     28  O   UNL     1      12.160   0.013  -3.801  1.00  0.00    -0.387 OA
ATOM     29  H   UNL     1      11.894  -0.870  -3.473  1.00  0.00    +0.211 HD
ENDBRANCH  12  28
BRANCH  14  30
ATOM     30  O   UNL     1      11.296  -1.631  -5.688  1.00  0.00    -0.385 OA
ATOM     31  H   UNL     1      10.918  -1.251  -4.873  1.00  0.00    +0.211 HD
ENDBRANCH  14  30
ENDBRANCH   8   9
ENDBRANCH   3   8
BRANCH   5  32
ATOM     32  O   UNL     1      11.209   3.112  -4.449  1.00  0.00    -0.387 OA
ATOM     33  H   UNL     1      11.002   3.785  -3.764  1.00  0.00    +0.211 HD
ENDBRANCH   5  32
BRANCH   7  34
ATOM     34  O   UNL     1       8.465   2.533  -4.877  1.00  0.00    -0.385 OA
ATOM     35  H   UNL     1       9.191   1.880  -4.903  1.00  0.00    +0.211 HD
ENDBRANCH   7  34
ENDBRANCH   1   2
BRANCH   1  36
ATOM     36  C   UNL     1       6.215   4.505  -7.660  1.00  0.00    +0.179 C 
ATOM     37  C   UNL     1       5.662   5.923  -7.526  1.00  0.00    +0.198 C 
ATOM     38  C   UNL     1       5.049   3.518  -7.883  1.00  0.00    +0.179 C 
ATOM     39  O   UNL     1       5.009   6.376  -8.718  1.00  0.00    -0.347 OA
ATOM     40  C   UNL     1       3.840   4.190  -8.555  1.00  0.00    +0.202 C 
ATOM     41  C   UNL     1       4.315   5.354  -9.450  1.00  0.00    +0.282 C 
BRANCH  38  42
ATOM     42  O   UNL     1       4.607   2.936  -6.639  1.00  0.00    -0.387 OA
ATOM     43  H   UNL     1       5.049   2.060  -6.584  1.00  0.00    +0.211 HD
ENDBRANCH  38  42
BRANCH  40  44
ATOM     44  O   UNL     1       2.939   4.665  -7.531  1.00  0.00    -0.385 OA
ATOM     45  H   UNL     1       2.929   3.948  -6.862  1.00  0.00    +0.211 HD
ENDBRANCH  40  44
BRANCH  41  46
ATOM     46  O   UNL     1       3.187   5.918 -10.118  1.00  0.00    -0.341 OA
BRANCH  46  47
ATOM     47  C   UNL     1       2.889   7.271  -9.736  1.00  0.00    +0.178 C 
BRANCH  47  48
ATOM     48  C   UNL     1       3.016   8.158 -10.980  1.00  0.00    +0.191 C 
BRANCH  48  49
ATOM     49  O   UNL     1       1.795   8.834 -11.251  1.00  0.00    -0.394 OA
ATOM     50  H   UNL     1       2.027   9.760 -11.447  1.00  0.00    +0.210 HD
ENDBRANCH  48  49
ENDBRANCH  47  48
BRANCH  47  51
ATOM     51  C   UNL     1       1.493   7.331  -9.059  1.00  0.00    +0.181 C 
BRANCH  51  52
ATOM     52  C   UNL     1       0.495   6.269  -9.552  1.00  0.00    +0.209 C 
BRANCH  52  53
ATOM     53  C   UNL     1      -0.395   5.836  -8.394  1.00  0.00    +0.258 C 
ATOM     54  O   UNL     1      -0.014   5.044  -7.531  1.00  0.00    -0.300 OA
ENDBRANCH  52  53
BRANCH  52  55
ATOM     55  O   UNL     1      -0.340   6.761 -10.601  1.00  0.00    -0.383 OA
ATOM     56  H   UNL     1       0.230   6.808 -11.397  1.00  0.00    +0.211 HD
ENDBRANCH  52  55
ENDBRANCH  51  52
BRANCH  51  57
ATOM     57  O   UNL     1       1.656   7.166  -7.633  1.00  0.00    -0.387 OA
ATOM     58  H   UNL     1       2.488   7.627  -7.385  1.00  0.00    +0.211 HD
ENDBRANCH  51  57
ENDBRANCH  47  51
ENDBRANCH  46  47
ENDBRANCH  41  46
ENDBRANCH   1  36
TORSDOF 24
ENDMDL
MODEL 2
REMARK VINA RESULT:    -9.027      2.206      3.909
REMARK INTER + INTRA:         -21.623
REMARK INTER:                 -18.758
REMARK INTRA:                  -2.864
REMARK UNBOUND:                -3.097
REMARK SMILES O=C[C@@H](O)[C@@H](O)[C@H](CO)O[C@H]1OC[C@@H](O[C@@H]2OC[C@H](O[C@H]3OC[C@H](O[C@H]4OC[C@H](O)[C@H](O)[C@@H]4O)[C@@H](O)[C@H]3O)[C@H](O)[C@@H]2O)[C@@H](O)[C@H]1O
REMARK SMILES IDX 15 1 16 2 19 3 18 4 39 5 17 6 41 7 20 8 21 9 24 10 23 11
REMARK SMILES IDX 35 12 22 13 37 14 25 15 26 16 28 17 29 18 27 19 31 20 33 21
REMARK SMILES IDX 30 22 32 24 34 26 36 28 38 30 40 32 42 34 14 36 13 37 43 38
REMARK SMILES IDX 12 39 45 40 11 41 44 42 46 44 10 46 7 47 8 48 9 49 5 51 3 52
REMARK SMILES IDX 2 53 1 54 4 55 6 57
REMARK H PARENT 30 23 32 25 34 27 36 29 38 31 40 33 42 35 44 43 46 45 9 50
REMARK H PARENT 4 56 6 58
ROOT
ATOM      1  O   UNL     1       4.696   6.251  -8.283  1.00  0.00    -0.341 OA
ENDROOT
BRANCH   1   2
ATOM      2  C   UNL     1       5.941   6.371  -8.977  1.00  0.00    +0.282 C 
ATOM      3  C   UNL     1       8.576   5.014  -8.860  1.00  0.00    +0.179 C 
ATOM      4  C   UNL     1       7.204   4.337  -9.017  1.00  0.00    +0.198 C 
ATOM      5  C   UNL     1       8.408   6.531  -8.607  1.00  0.00    +0.179 C 
ATOM      6  O   UNL     1       6.280   5.180  -9.699  1.00  0.00    -0.347 OA
ATOM      7  C   UNL     1       7.043   6.845  -7.994  1.00  0.00    +0.202 C 
BRANCH   3   8
ATOM      8  O   UNL     1       9.337   4.462  -7.774  1.00  0.00    -0.341 OA
BRANCH   8   9
ATOM      9  C   UNL     1       8.832   3.222  -7.265  1.00  0.00    +0.282 C 
ATOM     10  C   UNL     1      11.360   2.845  -6.194  1.00  0.00    +0.179 C 
ATOM     11  C   UNL     1      10.702   1.720  -7.001  1.00  0.00    +0.198 C 
ATOM     12  C   UNL     1      10.325   3.491  -5.249  1.00  0.00    +0.179 C 
ATOM     13  O   UNL     1       9.581   2.126  -7.791  1.00  0.00    -0.347 OA
ATOM     14  C   UNL     1       8.882   3.247  -5.723  1.00  0.00    +0.202 C 
BRANCH  10  15
ATOM     15  O   UNL     1      12.484   2.281  -5.501  1.00  0.00    -0.341 OA
BRANCH  15  16
ATOM     16  C   UNL     1      12.394   2.385  -4.075  1.00  0.00    +0.282 C 
ATOM     17  C   UNL     1      12.772   1.099  -2.118  1.00  0.00    +0.198 C 
ATOM     18  C   UNL     1      14.107   1.764  -1.764  1.00  0.00    +0.171 C 
ATOM     19  O   UNL     1      12.578   1.072  -3.529  1.00  0.00    -0.347 OA
ATOM     20  C   UNL     1      14.645   2.599  -2.939  1.00  0.00    +0.179 C 
ATOM     21  C   UNL     1      13.500   3.366  -3.604  1.00  0.00    +0.202 C 
BRANCH  18  22
ATOM     22  O   UNL     1      13.950   2.612  -0.613  1.00  0.00    -0.388 OA
ATOM     23  H   UNL     1      13.003   2.868  -0.587  1.00  0.00    +0.211 HD
ENDBRANCH  18  22
BRANCH  20  24
ATOM     24  O   UNL     1      15.627   3.538  -2.464  1.00  0.00    -0.387 OA
ATOM     25  H   UNL     1      16.498   3.106  -2.588  1.00  0.00    +0.211 HD
ENDBRANCH  20  24
BRANCH  21  26
ATOM     26  O   UNL     1      12.974   4.294  -2.624  1.00  0.00    -0.385 OA
ATOM     27  H   UNL     1      13.621   4.258  -1.890  1.00  0.00    +0.211 HD
ENDBRANCH  21  26
ENDBRANCH  15  16
ENDBRANCH  10  15
BRANCH  12  28
ATOM     28  O   UNL     1      10.586   4.908  -5.168  1.00  0.00    -0.387 OA
ATOM     29  H   UNL     1       9.749   5.320  -4.870  1.00  0.00    +0.211 HD
ENDBRANCH  12  28
BRANCH  14  30
ATOM     30  O   UNL     1       8.021   4.252  -5.168  1.00  0.00    -0.385 OA
ATOM     31  H   UNL     1       8.591   4.946  -4.788  1.00  0.00    +0.211 HD
ENDBRANCH  14  30
ENDBRANCH   8   9
ENDBRANCH   3   8
BRANCH   5  32
ATOM     32  O   UNL     1       9.446   7.025  -7.747  1.00  0.00    -0.387 OA
ATOM     33  H   UNL     1       9.233   6.685  -6.852  1.00  0.00    +0.211 HD
ENDBRANCH   5  32
BRANCH   7  34
ATOM     34  O   UNL     1       6.941   6.180  -6.719  1.00  0.00    -0.385 OA
ATOM     35  H   UNL     1       7.453   6.732  -6.096  1.00  0.00    +0.211 HD
ENDBRANCH   7  34
ENDBRANCH   1   2
BRANCH   1  36
ATOM     36  C   UNL     1       3.552   6.421  -9.122  1.00  0.00    +0.179 C 
ATOM     37  C   UNL     1       2.896   7.776  -8.858  1.00  0.00    +0.198 C 
ATOM     38  C   UNL     1       2.534   5.294  -8.847  1.00  0.00    +0.179 C 
ATOM     39  O   UNL     1       1.797   8.037  -9.740  1.00  0.00    -0.347 OA
ATOM     40  C   UNL     1       1.083   5.760  -9.050  1.00  0.00    +0.202 C 
ATOM     41  C   UNL     1       1.033   6.881 -10.111  1.00  0.00    +0.282 C 
BRANCH  38  42
ATOM     42  O   UNL     1       2.661   4.788  -7.502  1.00  0.00    -0.387 OA
ATOM     43  H   UNL     1       2.598   3.810  -7.581  1.00  0.00    +0.211 HD
ENDBRANCH  38  42
BRANCH  40  44
ATOM     44  O   UNL     1       0.560   6.227  -7.788  1.00  0.00    -0.385 OA
ATOM     45  H   UNL     1       0.468   5.416  -7.246  1.00  0.00    +0.211 HD
ENDBRANCH  40  44
BRANCH  41  46
ATOM     46  O   UNL     1      -0.327   7.250 -10.335  1.00  0.00    -0.341 OA
BRANCH  46  47
ATOM     47  C   UNL     1      -0.547   8.666 -10.438  1.00  0.00    +0.178 C 
BRANCH  47  48
ATOM     48  C   UNL     1      -0.251   9.092 -11.880  1.00  0.00    +0.191 C 
BRANCH  48  49
ATOM     49  O   UNL     1       0.223  10.431 -11.929  1.00  0.00    -0.394 OA
ATOM     50  H   UNL     1      -0.532  11.003 -11.701  1.00  0.00    +0.210 HD
ENDBRANCH  48  49
ENDBRANCH  47  48
BRANCH  47  51
ATOM     51  C   UNL     1      -1.983   9.011  -9.960  1.00  0.00    +0.181 C 
BRANCH  51  52
ATOM     52  C   UNL     1      -2.300   8.581  -8.518  1.00  0.00    +0.209 C 
BRANCH  52  53
ATOM     53  C   UNL     1      -3.727   8.984  -8.171  1.00  0.00    +0.258 C 
ATOM     54  O   UNL     1      -4.056  10.159  -7.997  1.00  0.00    -0.300 OA
ENDBRANCH  52  53
BRANCH  52  55
ATOM     55  O   UNL     1      -2.175   7.170  -8.337  1.00  0.00    -0.383 OA
ATOM     56  H   UNL     1      -1.442   6.888  -8.923  1.00  0.00    +0.211 HD
ENDBRANCH  52  55
ENDBRANCH  51  52
BRANCH  51  57
ATOM     57  O   UNL     1      -2.179  10.440 -10.055  1.00  0.00    -0.387 OA
ATOM     58  H   UNL     1      -2.495  10.744  -9.175  1.00  0.00    +0.211 HD
ENDBRANCH  51  57
ENDBRANCH  47  51
ENDBRANCH  46  47
ENDBRANCH  41  46
ENDBRANCH   1  36
TORSDOF 24
ENDMDL
MODEL 3
REMARK VINA RESULT:    -8.489      2.037      3.935
REMARK INTER + INTRA:         -20.519
REMARK INTER:                 -18.069
REMARK INTRA:                  -2.450
REMARK UNBOUND:                -3.097
REMARK SMILES O=C[C@@H](O)[C@@H](O)[C@H](CO)O[C@H]1OC[C@@H](O[C@@H]2OC[C@H](O[C@H]3OC[C@H](O[C@H]4OC[C@H](O)[C@H](O)[C@@H]4O)[C@@H](O)[C@H]3O)[C@H](O)[C@@H]2O)[C@@H](O)[C@H]1O
REMARK SMILES IDX 15 1 16 2 19 3 18 4 39 5 17 6 41 7 20 8 21 9 24 10 23 11
REMARK SMILES IDX 35 12 22 13 37 14 25 15 26 16 28 17 29 18 27 19 31 20 33 21
REMARK SMILES IDX 30 22 32 24 34 26 36 28 38 30 40 32 42 34 14 36 13 37 43 38
REMARK SMILES IDX 12 39 45 40 11 41 44 42 46 44 10 46 7 47 8 48 9 49 5 51 3 52
REMARK SMILES IDX 2 53 1 54 4 55 6 57
REMARK H PARENT 30 23 32 25 34 27 36 29 38 31 40 33 42 35 44 43 46 45 9 50
REMARK H PARENT 4 56 6 58
ROOT
ATOM      1  O   UNL     1       4.919   5.508  -8.490  1.00  0.00    -0.341 OA
ENDROOT
BRANCH   1   2
ATOM      2  C   UNL     1       6.126   6.264  -8.627  1.00  0.00    +0.282 C 
ATOM      3  C   UNL     1       9.023   5.715  -8.304  1.00  0.00    +0.179 C 
ATOM      4  C   UNL     1       8.031   4.919  -9.169  1.00  0.00    +0.198 C 
ATOM      5  C   UNL     1       8.280   6.785  -7.469  1.00  0.00    +0.179 C 
ATOM      6  O   UNL     1       6.980   5.748  -9.656  1.00  0.00    -0.347 OA
ATOM      7  C   UNL     1       6.817   6.398  -7.246  1.00  0.00    +0.202 C 
BRANCH   3   8
ATOM      8  O   UNL     1       9.758   4.873  -7.400  1.00  0.00    -0.341 OA
BRANCH   8   9
ATOM      9  C   UNL     1      10.035   3.562  -7.903  1.00  0.00    +0.282 C 
ATOM     10  C   UNL     1      11.165   3.052  -5.424  1.00  0.00    +0.179 C 
ATOM     11  C   UNL     1      11.941   2.701  -6.699  1.00  0.00    +0.198 C 
ATOM     12  C   UNL     1       9.685   2.644  -5.578  1.00  0.00    +0.179 C 
ATOM     13  O   UNL     1      11.441   3.311  -7.892  1.00  0.00    -0.347 OA
ATOM     14  C   UNL     1       9.273   2.521  -7.056  1.00  0.00    +0.202 C 
BRANCH  10  15
ATOM     15  O   UNL     1      11.820   2.401  -4.325  1.00  0.00    -0.341 OA
BRANCH  15  16
ATOM     16  C   UNL     1      13.197   2.768  -4.175  1.00  0.00    +0.282 C 
ATOM     17  C   UNL     1      14.566   4.304  -2.995  1.00  0.00    +0.198 C 
ATOM     18  C   UNL     1      15.051   3.293  -1.951  1.00  0.00    +0.171 C 
ATOM     19  O   UNL     1      13.245   3.991  -3.429  1.00  0.00    -0.347 OA
ATOM     20  C   UNL     1      14.207   2.007  -1.983  1.00  0.00    +0.179 C 
ATOM     21  C   UNL     1      13.914   1.610  -3.432  1.00  0.00    +0.202 C 
BRANCH  18  22
ATOM     22  O   UNL     1      16.430   2.961  -2.183  1.00  0.00    -0.388 OA
ATOM     23  H   UNL     1      16.484   1.981  -2.164  1.00  0.00    +0.211 HD
ENDBRANCH  18  22
BRANCH  20  24
ATOM     24  O   UNL     1      14.921   0.936  -1.338  1.00  0.00    -0.387 OA
ATOM     25  H   UNL     1      14.866   0.169  -1.947  1.00  0.00    +0.211 HD
ENDBRANCH  20  24
BRANCH  21  26
ATOM     26  O   UNL     1      15.182   1.307  -4.063  1.00  0.00    -0.385 OA
ATOM     27  H   UNL     1      15.014   1.449  -5.018  1.00  0.00    +0.211 HD
ENDBRANCH  21  26
ENDBRANCH  15  16
ENDBRANCH  10  15
BRANCH  12  28
ATOM     28  O   UNL     1       8.858   3.624  -4.915  1.00  0.00    -0.387 OA
ATOM     29  H   UNL     1       8.517   4.211  -5.621  1.00  0.00    +0.211 HD
ENDBRANCH  12  28
BRANCH  14  30
ATOM     30  O   UNL     1       7.850   2.666  -7.168  1.00  0.00    -0.385 OA
ATOM     31  H   UNL     1       7.442   1.948  -6.649  1.00  0.00    +0.211 HD
ENDBRANCH  14  30
ENDBRANCH   8   9
ENDBRANCH   3   8
BRANCH   5  32
ATOM     32  O   UNL     1       8.924   6.984  -6.202  1.00  0.00    -0.387 OA
ATOM     33  H   UNL     1       9.607   6.283  -6.138  1.00  0.00    +0.211 HD
ENDBRANCH   5  32
BRANCH   7  34
ATOM     34  O   UNL     1       6.770   5.162  -6.504  1.00  0.00    -0.385 OA
ATOM     35  H   UNL     1       6.094   4.616  -6.949  1.00  0.00    +0.211 HD
ENDBRANCH   7  34
ENDBRANCH   1   2
BRANCH   1  36
ATOM     36  C   UNL     1       3.833   6.017  -9.266  1.00  0.00    +0.179 C 
ATOM     37  C   UNL     1       3.688   7.524  -9.055  1.00  0.00    +0.198 C 
ATOM     38  C   UNL     1       2.524   5.312  -8.852  1.00  0.00    +0.179 C 
ATOM     39  O   UNL     1       2.670   8.102  -9.882  1.00  0.00    -0.347 OA
ATOM     40  C   UNL     1       1.299   6.230  -8.996  1.00  0.00    +0.202 C 
ATOM     41  C   UNL     1       1.538   7.254 -10.125  1.00  0.00    +0.282 C 
BRANCH  38  42
ATOM     42  O   UNL     1       2.585   4.850  -7.487  1.00  0.00    -0.387 OA
ATOM     43  H   UNL     1       2.043   4.031  -7.460  1.00  0.00    +0.211 HD
ENDBRANCH  38  42
BRANCH  40  44
ATOM     44  O   UNL     1       1.066   6.899  -7.737  1.00  0.00    -0.385 OA
ATOM     45  H   UNL     1       0.413   7.599  -7.950  1.00  0.00    +0.211 HD
ENDBRANCH  40  44
BRANCH  41  46
ATOM     46  O   UNL     1       0.364   8.050 -10.288  1.00  0.00    -0.341 OA
BRANCH  46  47
ATOM     47  C   UNL     1      -0.526   7.587 -11.317  1.00  0.00    +0.178 C 
BRANCH  47  48
ATOM     48  C   UNL     1      -1.938   7.502 -10.725  1.00  0.00    +0.191 C 
BRANCH  48  49
ATOM     49  O   UNL     1      -2.122   6.280 -10.021  1.00  0.00    -0.394 OA
ATOM     50  H   UNL     1      -1.235   5.901  -9.884  1.00  0.00    +0.210 HD
ENDBRANCH  48  49
ENDBRANCH  47  48
BRANCH  47  51
ATOM     51  C   UNL     1      -0.418   8.510 -12.560  1.00  0.00    +0.181 C 
BRANCH  51  52
ATOM     52  C   UNL     1       0.220   9.883 -12.286  1.00  0.00    +0.209 C 
BRANCH  52  53
ATOM     53  C   UNL     1       0.354  10.649 -13.596  1.00  0.00    +0.258 C 
ATOM     54  O   UNL     1      -0.439  10.505 -14.528  1.00  0.00    -0.300 OA
ENDBRANCH  52  53
BRANCH  52  55
ATOM     55  O   UNL     1      -0.560  10.668 -11.384  1.00  0.00    -0.383 OA
ATOM     56  H   UNL     1      -1.377  10.154 -11.218  1.00  0.00    +0.211 HD
ENDBRANCH  52  55
ENDBRANCH  51  52
BRANCH  51  57
ATOM     57  O   UNL     1       0.368   7.844 -13.573  1.00  0.00    -0.387 OA
ATOM     58  H   UNL     1       0.121   6.892 -13.547  1.00  0.00    +0.211 HD
ENDBRANCH  51  57
ENDBRANCH  47  51
ENDBRANCH  46  47
ENDBRANCH  41  46
ENDBRANCH   1  36
TORSDOF 24
ENDMDL
MODEL 4
REMARK VINA RESULT:    -8.377      3.815     14.304
REMARK INTER + INTRA:         -20.288
REMARK INTER:                 -17.997
REMARK INTRA:                  -2.291
REMARK UNBOUND:                -3.097
REMARK SMILES O=C[C@@H](O)[C@@H](O)[C@H](CO)O[C@H]1OC[C@@H](O[C@@H]2OC[C@H](O[C@H]3OC[C@H](O[C@H]4OC[C@H](O)[C@H](O)[C@@H]4O)[C@@H](O)[C@H]3O)[C@H](O)[C@@H]2O)[C@@H](O)[C@H]1O
REMARK SMILES IDX 15 1 16 2 19 3 18 4 39 5 17 6 41 7 20 8 21 9 24 10 23 11
REMARK SMILES IDX 35 12 22 13 37 14 25 15 26 16 28 17 29 18 27 19 31 20 33 21
REMARK SMILES IDX 30 22 32 24 34 26 36 28 38 30 40 32 42 34 14 36 13 37 43 38
REMARK SMILES IDX 12 39 45 40 11 41 44 42 46 44 10 46 7 47 8 48 9 49 5 51 3 52
REMARK SMILES IDX 2 53 1 54 4 55 6 57
REMARK H PARENT 30 23 32 25 34 27 36 29 38 31 40 33 42 35 44 43 46 45 9 50
REMARK H PARENT 4 56 6 58
ROOT
ATOM      1  O   UNL     1       4.435   6.223  -9.261  1.00  0.00    -0.341 OA
ENDROOT
BRANCH   1   2
ATOM      2  C   UNL     1       3.410   7.099  -8.783  1.00  0.00    +0.282 C 
ATOM      3  C   UNL     1       0.451   7.197  -8.954  1.00  0.00    +0.179 C 
ATOM      4  C   UNL     1       1.300   6.010  -8.471  1.00  0.00    +0.198 C 
ATOM      5  C   UNL     1       1.355   8.325  -9.506  1.00  0.00    +0.179 C 
ATOM      6  O   UNL     1       2.516   6.448  -7.871  1.00  0.00    -0.347 OA
ATOM      7  C   UNL     1       2.700   7.775  -9.984  1.00  0.00    +0.202 C 
BRANCH   3   8
ATOM      8  O   UNL     1      -0.476   6.822  -9.987  1.00  0.00    -0.341 OA
BRANCH   8   9
ATOM      9  C   UNL     1      -1.565   6.008  -9.538  1.00  0.00    +0.282 C 
ATOM     10  C   UNL     1      -3.009   8.367  -9.356  1.00  0.00    +0.179 C 
ATOM     11  C   UNL     1      -3.001   7.388  -8.175  1.00  0.00    +0.198 C 
ATOM     12  C   UNL     1      -3.163   7.593 -10.681  1.00  0.00    +0.179 C 
ATOM     13  O   UNL     1      -1.971   6.397  -8.226  1.00  0.00    -0.347 OA
ATOM     14  C   UNL     1      -2.732   6.122 -10.542  1.00  0.00    +0.202 C 
BRANCH  10  15
ATOM     15  O   UNL     1      -4.065   9.312  -9.127  1.00  0.00    -0.341 OA
BRANCH  15  16
ATOM     16  C   UNL     1      -3.671  10.676  -9.326  1.00  0.00    +0.282 C 
ATOM     17  C   UNL     1      -4.127  12.526 -10.739  1.00  0.00    +0.198 C 
ATOM     18  C   UNL     1      -5.015  13.262  -9.730  1.00  0.00    +0.171 C 
ATOM     19  O   UNL     1      -4.232  11.115 -10.571  1.00  0.00    -0.347 OA
ATOM     20  C   UNL     1      -5.411  12.346  -8.559  1.00  0.00    +0.179 C 
ATOM     21  C   UNL     1      -4.210  11.501  -8.128  1.00  0.00    +0.202 C 
BRANCH  18  22
ATOM     22  O   UNL     1      -4.332  14.418  -9.217  1.00  0.00    -0.388 OA
ATOM     23  H   UNL     1      -3.409  14.362  -9.547  1.00  0.00    +0.211 HD
ENDBRANCH  18  22
BRANCH  20  24
ATOM     24  O   UNL     1      -5.852  13.140  -7.442  1.00  0.00    -0.387 OA
ATOM     25  H   UNL     1      -6.708  13.534  -7.712  1.00  0.00    +0.211 HD
ENDBRANCH  20  24
BRANCH  21  26
ATOM     26  O   UNL     1      -3.195  12.409  -7.636  1.00  0.00    -0.385 OA
ATOM     27  H   UNL     1      -3.561  12.743  -6.792  1.00  0.00    +0.211 HD
ENDBRANCH  21  26
ENDBRANCH  15  16
ENDBRANCH  10  15
BRANCH  12  28
ATOM     28  O   UNL     1      -2.372   8.245 -11.698  1.00  0.00    -0.387 OA
ATOM     29  H   UNL     1      -1.533   8.501 -11.263  1.00  0.00    +0.211 HD
ENDBRANCH  12  28
BRANCH  14  30
ATOM     30  O   UNL     1      -2.389   5.601 -11.835  1.00  0.00    -0.385 OA
ATOM     31  H   UNL     1      -1.647   4.980 -11.711  1.00  0.00    +0.211 HD
ENDBRANCH  14  30
ENDBRANCH   8   9
ENDBRANCH   3   8
BRANCH   5  32
ATOM     32  O   UNL     1       0.709   9.019 -10.584  1.00  0.00    -0.387 OA
ATOM     33  H   UNL     1       1.103   9.918 -10.596  1.00  0.00    +0.211 HD
ENDBRANCH   5  32
BRANCH   7  34
ATOM     34  O   UNL     1       2.467   6.844 -11.059  1.00  0.00    -0.385 OA
ATOM     35  H   UNL     1       2.926   6.023 -10.797  1.00  0.00    +0.211 HD
ENDBRANCH   7  34
ENDBRANCH   1   2
BRANCH   1  36
ATOM     36  C   UNL     1       5.351   5.805  -8.247  1.00  0.00    +0.179 C 
ATOM     37  C   UNL     1       6.680   5.383  -8.873  1.00  0.00    +0.198 C 
ATOM     38  C   UNL     1       4.752   4.618  -7.464  1.00  0.00    +0.179 C 
ATOM     39  O   UNL     1       7.667   5.042  -7.892  1.00  0.00    -0.347 OA
ATOM     40  C   UNL     1       5.834   3.650  -6.958  1.00  0.00    +0.202 C 
ATOM     41  C   UNL     1       7.150   4.416  -6.708  1.00  0.00    +0.282 C 
BRANCH  38  42
ATOM     42  O   UNL     1       3.821   3.869  -8.274  1.00  0.00    -0.387 OA
ATOM     43  H   UNL     1       3.365   4.534  -8.835  1.00  0.00    +0.211 HD
ENDBRANCH  38  42
BRANCH  40  44
ATOM     44  O   UNL     1       6.026   2.608  -7.939  1.00  0.00    -0.385 OA
ATOM     45  H   UNL     1       5.508   1.850  -7.596  1.00  0.00    +0.211 HD
ENDBRANCH  40  44
BRANCH  41  46
ATOM     46  O   UNL     1       8.120   3.515  -6.174  1.00  0.00    -0.341 OA
BRANCH  46  47
ATOM     47  C   UNL     1       9.458   3.737  -6.647  1.00  0.00    +0.178 C 
BRANCH  47  48
ATOM     48  C   UNL     1      10.337   4.097  -5.443  1.00  0.00    +0.191 C 
BRANCH  48  49
ATOM     49  O   UNL     1       9.716   3.708  -4.225  1.00  0.00    -0.394 OA
ATOM     50  H   UNL     1      10.423   3.371  -3.646  1.00  0.00    +0.210 HD
ENDBRANCH  48  49
ENDBRANCH  47  48
BRANCH  47  51
ATOM     51  C   UNL     1       9.949   2.494  -7.437  1.00  0.00    +0.181 C 
BRANCH  51  52
ATOM     52  C   UNL     1      10.992   1.636  -6.701  1.00  0.00    +0.209 C 
BRANCH  52  53
ATOM     53  C   UNL     1      10.289   0.498  -5.973  1.00  0.00    +0.258 C 
ATOM     54  O   UNL     1       9.760   0.648  -4.871  1.00  0.00    -0.300 OA
ENDBRANCH  52  53
BRANCH  52  55
ATOM     55  O   UNL     1      11.953   1.073  -7.595  1.00  0.00    -0.383 OA
ATOM     56  H   UNL     1      12.735   1.662  -7.554  1.00  0.00    +0.211 HD
ENDBRANCH  52  55
ENDBRANCH  51  52
BRANCH  51  57
ATOM     57  O   UNL     1       8.813   1.655  -7.744  1.00  0.00    -0.387 OA
ATOM     58  H   UNL     1       8.726   1.011  -7.006  1.00  0.00    +0.211 HD
ENDBRANCH  51  57
ENDBRANCH  47  51
ENDBRANCH  46  47
ENDBRANCH  41  46
ENDBRANCH   1  36
TORSDOF 24
ENDMDL
MODEL 5
REMARK VINA RESULT:    -8.274      2.054      4.076
REMARK INTER + INTRA:         -20.077
REMARK INTER:                 -17.171
REMARK INTRA:                  -2.906
REMARK UNBOUND:                -3.097
REMARK SMILES O=C[C@@H](O)[C@@H](O)[C@H](CO)O[C@H]1OC[C@@H](O[C@@H]2OC[C@H](O[C@H]3OC[C@H](O[C@H]4OC[C@H](O)[C@H](O)[C@@H]4O)[C@@H](O)[C@H]3O)[C@H](O)[C@@H]2O)[C@@H](O)[C@H]1O
REMARK SMILES IDX 15 1 16 2 19 3 18 4 39 5 17 6 41 7 20 8 21 9 24 10 23 11
REMARK SMILES IDX 35 12 22 13 37 14 25 15 26 16 28 17 29 18 27 19 31 20 33 21
REMARK SMILES IDX 30 22 32 24 34 26 36 28 38 30 40 32 42 34 14 36 13 37 43 38
REMARK SMILES IDX 12 39 45 40 11 41 44 42 46 44 10 46 7 47 8 48 9 49 5 51 3 52
REMARK SMILES IDX 2 53 1 54 4 55 6 57
REMARK H PARENT 30 23 32 25 34 27 36 29 38 31 40 33 42 35 44 43 46 45 9 50
REMARK H PARENT 4 56 6 58
ROOT
ATOM      1  O   UNL     1       8.263   5.057  -6.394  1.00  0.00    -0.341 OA
ENDROOT
BRANCH   1   2
ATOM      2  C   UNL     1       8.219   3.637  -6.223  1.00  0.00    +0.282 C 
ATOM      3  C   UNL     1       9.911   1.608  -4.875  1.00  0.00    +0.179 C 
ATOM      4  C   UNL     1       9.335   2.885  -4.242  1.00  0.00    +0.198 C 
ATOM      5  C   UNL     1       9.623   1.576  -6.395  1.00  0.00    +0.179 C 
ATOM      6  O   UNL     1       8.099   3.257  -4.846  1.00  0.00    -0.347 OA
ATOM      7  C   UNL     1       9.422   2.986  -6.952  1.00  0.00    +0.202 C 
BRANCH   3   8
ATOM      8  O   UNL     1      11.331   1.497  -4.687  1.00  0.00    -0.341 OA
BRANCH   8   9
ATOM      9  C   UNL     1      11.795   1.932  -3.404  1.00  0.00    +0.282 C 
ATOM     10  C   UNL     1      14.332   1.269  -4.304  1.00  0.00    +0.179 C 
ATOM     11  C   UNL     1      13.857   0.768  -2.935  1.00  0.00    +0.198 C 
ATOM     12  C   UNL     1      13.920   2.743  -4.497  1.00  0.00    +0.179 C 
ATOM     13  O   UNL     1      12.446   0.861  -2.720  1.00  0.00    -0.347 OA
ATOM     14  C   UNL     1      12.742   3.137  -3.588  1.00  0.00    +0.202 C 
BRANCH  10  15
ATOM     15  O   UNL     1      15.751   1.064  -4.372  1.00  0.00    -0.341 OA
BRANCH  15  16
ATOM     16  C   UNL     1      16.217   0.684  -5.672  1.00  0.00    +0.282 C 
ATOM     17  C   UNL     1      17.913  -0.615  -6.703  1.00  0.00    +0.198 C 
ATOM     18  C   UNL     1      17.005  -1.805  -7.030  1.00  0.00    +0.171 C 
ATOM     19  O   UNL     1      17.486   0.036  -5.510  1.00  0.00    -0.347 OA
ATOM     20  C   UNL     1      15.666  -1.710  -6.278  1.00  0.00    +0.179 C 
ATOM     21  C   UNL     1      15.159  -0.266  -6.293  1.00  0.00    +0.202 C 
BRANCH  18  22
ATOM     22  O   UNL     1      16.752  -1.864  -8.443  1.00  0.00    -0.388 OA
ATOM     23  H   UNL     1      16.472  -2.785  -8.635  1.00  0.00    +0.211 HD
ENDBRANCH  18  22
BRANCH  20  24
ATOM     24  O   UNL     1      14.688  -2.558  -6.909  1.00  0.00    -0.387 OA
ATOM     25  H   UNL     1      15.197  -3.241  -7.395  1.00  0.00    +0.211 HD
ENDBRANCH  20  24
BRANCH  21  26
ATOM     26  O   UNL     1      14.902   0.089  -7.673  1.00  0.00    -0.385 OA
ATOM     27  H   UNL     1      15.497   0.849  -7.839  1.00  0.00    +0.211 HD
ENDBRANCH  21  26
ENDBRANCH  15  16
ENDBRANCH  10  15
BRANCH  12  28
ATOM     28  O   UNL     1      13.567   2.953  -5.881  1.00  0.00    -0.387 OA
ATOM     29  H   UNL     1      13.392   3.912  -5.973  1.00  0.00    +0.211 HD
ENDBRANCH  12  28
BRANCH  14  30
ATOM     30  O   UNL     1      12.070   4.276  -4.144  1.00  0.00    -0.385 OA
ATOM     31  H   UNL     1      12.608   5.062  -3.934  1.00  0.00    +0.211 HD
ENDBRANCH  14  30
ENDBRANCH   8   9
ENDBRANCH   3   8
BRANCH   5  32
ATOM     32  O   UNL     1      10.688   0.926  -7.105  1.00  0.00    -0.387 OA
ATOM     33  H   UNL     1      10.819   0.063  -6.655  1.00  0.00    +0.211 HD
ENDBRANCH   5  32
BRANCH   7  34
ATOM     34  O   UNL     1      10.635   3.741  -6.758  1.00  0.00    -0.385 OA
ATOM     35  H   UNL     1      10.536   4.540  -7.310  1.00  0.00    +0.211 HD
ENDBRANCH   7  34
ENDBRANCH   1   2
BRANCH   1  36
ATOM     36  C   UNL     1       7.192   5.572  -7.187  1.00  0.00    +0.179 C 
ATOM     37  C   UNL     1       6.226   4.452  -7.570  1.00  0.00    +0.198 C 
ATOM     38  C   UNL     1       7.760   6.221  -8.467  1.00  0.00    +0.179 C 
ATOM     39  O   UNL     1       5.083   4.930  -8.289  1.00  0.00    -0.347 OA
ATOM     40  C   UNL     1       6.799   6.092  -9.660  1.00  0.00    +0.202 C 
ATOM     41  C   UNL     1       5.340   6.044  -9.157  1.00  0.00    +0.282 C 
BRANCH  38  42
ATOM     42  O   UNL     1       9.023   5.630  -8.840  1.00  0.00    -0.387 OA
ATOM     43  H   UNL     1       9.117   5.793  -9.804  1.00  0.00    +0.211 HD
ENDBRANCH  38  42
BRANCH  40  44
ATOM     44  O   UNL     1       7.126   4.894 -10.397  1.00  0.00    -0.385 OA
ATOM     45  H   UNL     1       6.465   4.863 -11.121  1.00  0.00    +0.211 HD
ENDBRANCH  40  44
BRANCH  41  46
ATOM     46  O   UNL     1       4.462   5.994 -10.281  1.00  0.00    -0.341 OA
BRANCH  46  47
ATOM     47  C   UNL     1       3.425   6.990 -10.267  1.00  0.00    +0.178 C 
BRANCH  47  48
ATOM     48  C   UNL     1       3.406   7.680 -11.635  1.00  0.00    +0.191 C 
BRANCH  48  49
ATOM     49  O   UNL     1       2.913   9.009 -11.529  1.00  0.00    -0.394 OA
ATOM     50  H   UNL     1       2.192   8.987 -10.874  1.00  0.00    +0.210 HD
ENDBRANCH  48  49
ENDBRANCH  47  48
BRANCH  47  51
ATOM     51  C   UNL     1       2.075   6.336  -9.870  1.00  0.00    +0.181 C 
BRANCH  51  52
ATOM     52  C   UNL     1       1.759   6.376  -8.366  1.00  0.00    +0.209 C 
BRANCH  52  53
ATOM     53  C   UNL     1       0.256   6.523  -8.168  1.00  0.00    +0.258 C 
ATOM     54  O   UNL     1      -0.522   5.575  -8.295  1.00  0.00    -0.300 OA
ENDBRANCH  52  53
BRANCH  52  55
ATOM     55  O   UNL     1       2.188   5.191  -7.694  1.00  0.00    -0.383 OA
ATOM     56  H   UNL     1       3.130   5.073  -7.933  1.00  0.00    +0.211 HD
ENDBRANCH  52  55
ENDBRANCH  51  52
BRANCH  51  57
ATOM     57  O   UNL     1       1.004   7.007 -10.572  1.00  0.00    -0.387 OA
ATOM     58  H   UNL     1       1.348   7.240 -11.463  1.00  0.00    +0.211 HD
ENDBRANCH  51  57
ENDBRANCH  47  51
ENDBRANCH  46  47
ENDBRANCH  41  46
ENDBRANCH   1  36
TORSDOF 24
ENDMDL
MODEL 6
REMARK VINA RESULT:    -8.136      1.992      3.839
REMARK INTER + INTRA:         -19.795
REMARK INTER:                 -17.167
REMARK INTRA:                  -2.627
REMARK UNBOUND:                -3.097
REMARK SMILES O=C[C@@H](O)[C@@H](O)[C@H](CO)O[C@H]1OC[C@@H](O[C@@H]2OC[C@H](O[C@H]3OC[C@H](O[C@H]4OC[C@H](O)[C@H](O)[C@@H]4O)[C@@H](O)[C@H]3O)[C@H](O)[C@@H]2O)[C@@H](O)[C@H]1O
REMARK SMILES IDX 15 1 16 2 19 3 18 4 39 5 17 6 41 7 20 8 21 9 24 10 23 11
REMARK SMILES IDX 35 12 22 13 37 14 25 15 26 16 28 17 29 18 27 19 31 20 33 21
REMARK SMILES IDX 30 22 32 24 34 26 36 28 38 30 40 32 42 34 14 36 13 37 43 38
REMARK SMILES IDX 12 39 45 40 11 41 44 42 46 44 10 46 7 47 8 48 9 49 5 51 3 52
REMARK SMILES IDX 2 53 1 54 4 55 6 57
REMARK H PARENT 30 23 32 25 34 27 36 29 38 31 40 33 42 35 44 43 46 45 9 50
REMARK H PARENT 4 56 6 58
ROOT
ATOM      1  O   UNL     1      10.183   3.921  -8.410  1.00  0.00    -0.341 OA
ENDROOT
BRANCH   1   2
ATOM      2  C   UNL     1      10.429   2.523  -8.232  1.00  0.00    +0.282 C 
ATOM      3  C   UNL     1      11.307   0.790  -5.992  1.00  0.00    +0.179 C 
ATOM      4  C   UNL     1      10.139   1.788  -5.972  1.00  0.00    +0.198 C 
ATOM      5  C   UNL     1      12.100   0.905  -7.316  1.00  0.00    +0.179 C 
ATOM      6  O   UNL     1       9.553   1.934  -7.263  1.00  0.00    -0.347 OA
ATOM      7  C   UNL     1      11.934   2.290  -7.943  1.00  0.00    +0.202 C 
BRANCH   3   8
ATOM      8  O   UNL     1      12.223   0.997  -4.903  1.00  0.00    -0.341 OA
BRANCH   8   9
ATOM      9  C   UNL     1      11.616   1.489  -3.703  1.00  0.00    +0.282 C 
ATOM     10  C   UNL     1      14.199   1.884  -2.780  1.00  0.00    +0.179 C 
ATOM     11  C   UNL     1      13.181   1.152  -1.898  1.00  0.00    +0.198 C 
ATOM     12  C   UNL     1      13.536   3.107  -3.447  1.00  0.00    +0.179 C 
ATOM     13  O   UNL     1      12.012   0.696  -2.584  1.00  0.00    -0.347 OA
ATOM     14  C   UNL     1      12.004   2.970  -3.507  1.00  0.00    +0.202 C 
BRANCH  10  15
ATOM     15  O   UNL     1      15.320   2.230  -1.952  1.00  0.00    -0.341 OA
BRANCH  15  16
ATOM     16  C   UNL     1      16.582   2.151  -2.628  1.00  0.00    +0.282 C 
ATOM     17  C   UNL     1      17.479   1.867  -4.805  1.00  0.00    +0.198 C 
ATOM     18  C   UNL     1      17.819   3.346  -5.015  1.00  0.00    +0.171 C 
ATOM     19  O   UNL     1      16.332   1.723  -3.973  1.00  0.00    -0.347 OA
ATOM     20  C   UNL     1      17.144   4.232  -3.953  1.00  0.00    +0.179 C 
ATOM     21  C   UNL     1      17.230   3.560  -2.581  1.00  0.00    +0.202 C 
BRANCH  18  22
ATOM     22  O   UNL     1      19.242   3.542  -4.961  1.00  0.00    -0.388 OA
ATOM     23  H   UNL     1      19.560   3.504  -5.888  1.00  0.00    +0.211 HD
ENDBRANCH  18  22
BRANCH  20  24
ATOM     24  O   UNL     1      17.801   5.511  -3.892  1.00  0.00    -0.387 OA
ATOM     25  H   UNL     1      18.760   5.326  -3.978  1.00  0.00    +0.211 HD
ENDBRANCH  20  24
BRANCH  21  26
ATOM     26  O   UNL     1      18.632   3.465  -2.231  1.00  0.00    -0.385 OA
ATOM     27  H   UNL     1      19.006   2.860  -2.905  1.00  0.00    +0.211 HD
ENDBRANCH  21  26
ENDBRANCH  15  16
ENDBRANCH  10  15
BRANCH  12  28
ATOM     28  O   UNL     1      14.071   3.260  -4.779  1.00  0.00    -0.387 OA
ATOM     29  H   UNL     1      14.861   2.683  -4.821  1.00  0.00    +0.211 HD
ENDBRANCH  12  28
BRANCH  14  30
ATOM     30  O   UNL     1      11.490   3.809  -4.551  1.00  0.00    -0.385 OA
ATOM     31  H   UNL     1      11.212   4.648  -4.140  1.00  0.00    +0.211 HD
ENDBRANCH  14  30
ENDBRANCH   8   9
ENDBRANCH   3   8
BRANCH   5  32
ATOM     32  O   UNL     1      13.494   0.637  -7.104  1.00  0.00    -0.387 OA
ATOM     33  H   UNL     1      13.855   0.397  -7.984  1.00  0.00    +0.211 HD
ENDBRANCH   5  32
BRANCH   7  34
ATOM     34  O   UNL     1      12.462   3.278  -7.036  1.00  0.00    -0.385 OA
ATOM     35  H   UNL     1      12.087   3.058  -6.162  1.00  0.00    +0.211 HD
ENDBRANCH   7  34
ENDBRANCH   1   2
BRANCH   1  36
ATOM     36  C   UNL     1       8.796   4.256  -8.472  1.00  0.00    +0.179 C 
ATOM     37  C   UNL     1       8.533   5.224  -9.625  1.00  0.00    +0.198 C 
ATOM     38  C   UNL     1       8.361   4.910  -7.143  1.00  0.00    +0.179 C 
ATOM     39  O   UNL     1       7.141   5.521  -9.790  1.00  0.00    -0.347 OA
ATOM     40  C   UNL     1       7.244   5.948  -7.345  1.00  0.00    +0.202 C 
ATOM     41  C   UNL     1       6.386   5.567  -8.570  1.00  0.00    +0.282 C 
BRANCH  38  42
ATOM     42  O   UNL     1       9.469   5.561  -6.490  1.00  0.00    -0.387 OA
ATOM     43  H   UNL     1       9.110   5.913  -5.646  1.00  0.00    +0.211 HD
ENDBRANCH  38  42
BRANCH  40  44
ATOM     44  O   UNL     1       7.843   7.250  -7.524  1.00  0.00    -0.385 OA
ATOM     45  H   UNL     1       7.281   7.853  -6.992  1.00  0.00    +0.211 HD
ENDBRANCH  40  44
BRANCH  41  46
ATOM     46  O   UNL     1       5.316   6.503  -8.698  1.00  0.00    -0.341 OA
BRANCH  46  47
ATOM     47  C   UNL     1       4.147   5.980  -9.350  1.00  0.00    +0.178 C 
BRANCH  47  48
ATOM     48  C   UNL     1       3.510   4.938  -8.423  1.00  0.00    +0.191 C 
BRANCH  48  49
ATOM     49  O   UNL     1       3.475   5.403  -7.081  1.00  0.00    -0.394 OA
ATOM     50  H   UNL     1       2.706   4.980  -6.659  1.00  0.00    +0.210 HD
ENDBRANCH  48  49
ENDBRANCH  47  48
BRANCH  47  51
ATOM     51  C   UNL     1       3.196   7.144  -9.738  1.00  0.00    +0.181 C 
BRANCH  51  52
ATOM     52  C   UNL     1       1.704   6.774  -9.758  1.00  0.00    +0.209 C 
BRANCH  52  53
ATOM     53  C   UNL     1       0.990   7.489  -8.618  1.00  0.00    +0.258 C 
ATOM     54  O   UNL     1       0.954   7.034  -7.474  1.00  0.00    -0.300 OA
ENDBRANCH  52  53
BRANCH  52  55
ATOM     55  O   UNL     1       1.074   7.143 -10.985  1.00  0.00    -0.383 OA
ATOM     56  H   UNL     1       0.600   6.344 -11.295  1.00  0.00    +0.211 HD
ENDBRANCH  52  55
ENDBRANCH  51  52
BRANCH  51  57
ATOM     57  O   UNL     1       3.377   8.230  -8.802  1.00  0.00    -0.387 OA
ATOM     58  H   UNL     1       2.573   8.793  -8.858  1.00  0.00    +0.211 HD
ENDBRANCH  51  57
ENDBRANCH  47  51
ENDBRANCH  46  47
ENDBRANCH  41  46
ENDBRANCH   1  36
TORSDOF 24
ENDMDL
MODEL 7
REMARK VINA RESULT:    -7.839      3.343     14.244
REMARK INTER + INTRA:         -19.184
REMARK INTER:                 -16.087
REMARK INTRA:                  -3.097
REMARK UNBOUND:                -3.097
REMARK SMILES O=C[C@@H](O)[C@@H](O)[C@H](CO)O[C@H]1OC[C@@H](O[C@@H]2OC[C@H](O[C@H]3OC[C@H](O[C@H]4OC[C@H](O)[C@H](O)[C@@H]4O)[C@@H](O)[C@H]3O)[C@H](O)[C@@H]2O)[C@@H](O)[C@H]1O
REMARK SMILES IDX 15 1 16 2 19 3 18 4 39 5 17 6 41 7 20 8 21 9 24 10 23 11
REMARK SMILES IDX 35 12 22 13 37 14 25 15 26 16 28 17 29 18 27 19 31 20 33 21
REMARK SMILES IDX 30 22 32 24 34 26 36 28 38 30 40 32 42 34 14 36 13 37 43 38
REMARK SMILES IDX 12 39 45 40 11 41 44 42 46 44 10 46 7 47 8 48 9 49 5 51 3 52
REMARK SMILES IDX 2 53 1 54 4 55 6 57
REMARK H PARENT 30 23 32 25 34 27 36 29 38 31 40 33 42 35 44 43 46 45 9 50
REMARK H PARENT 4 56 6 58
ROOT
ATOM      1  O   UNL     1       4.507   6.123  -9.410  1.00  0.00    -0.341 OA
ENDROOT
BRANCH   1   2
ATOM      2  C   UNL     1       3.444   6.807  -8.740  1.00  0.00    +0.282 C 
ATOM      3  C   UNL     1       0.484   6.636  -8.731  1.00  0.00    +0.179 C 
ATOM      4  C   UNL     1       1.467   5.479  -8.496  1.00  0.00    +0.198 C 
ATOM      5  C   UNL     1       1.242   7.921  -9.140  1.00  0.00    +0.179 C 
ATOM      6  O   UNL     1       2.678   5.935  -7.900  1.00  0.00    -0.347 OA
ATOM      7  C   UNL     1       2.594   7.590  -9.773  1.00  0.00    +0.202 C 
BRANCH   3   8
ATOM      8  O   UNL     1      -0.476   6.339  -9.759  1.00  0.00    -0.341 OA
BRANCH   8   9
ATOM      9  C   UNL     1      -1.763   5.941  -9.271  1.00  0.00    +0.282 C 
ATOM     10  C   UNL     1      -2.613   8.478  -9.994  1.00  0.00    +0.179 C 
ATOM     11  C   UNL     1      -2.941   7.936  -8.597  1.00  0.00    +0.198 C 
ATOM     12  C   UNL     1      -2.831   7.377 -11.051  1.00  0.00    +0.179 C 
ATOM     13  O   UNL     1      -2.176   6.794  -8.203  1.00  0.00    -0.347 OA
ATOM     14  C   UNL     1      -2.777   5.967 -10.434  1.00  0.00    +0.202 C 
BRANCH  10  15
ATOM     15  O   UNL     1      -3.429   9.640 -10.210  1.00  0.00    -0.341 OA
BRANCH  15  16
ATOM     16  C   UNL     1      -2.691  10.790 -10.641  1.00  0.00    +0.282 C 
ATOM     17  C   UNL     1      -0.915  11.388 -12.095  1.00  0.00    +0.198 C 
ATOM     18  C   UNL     1      -1.817  11.945 -13.202  1.00  0.00    +0.171 C 
ATOM     19  O   UNL     1      -1.564  10.329 -11.398  1.00  0.00    -0.347 OA
ATOM     20  C   UNL     1      -3.286  11.546 -12.982  1.00  0.00    +0.179 C 
ATOM     21  C   UNL     1      -3.644  11.665 -11.498  1.00  0.00    +0.202 C 
BRANCH  18  22
ATOM     22  O   UNL     1      -1.718  13.378 -13.250  1.00  0.00    -0.388 OA
ATOM     23  H   UNL     1      -0.783  13.582 -13.469  1.00  0.00    +0.211 HD
ENDBRANCH  18  22
BRANCH  20  24
ATOM     24  O   UNL     1      -4.149  12.410 -13.744  1.00  0.00    -0.387 OA
ATOM     25  H   UNL     1      -4.278  13.213 -13.197  1.00  0.00    +0.211 HD
ENDBRANCH  20  24
BRANCH  21  26
ATOM     26  O   UNL     1      -3.520  13.061 -11.134  1.00  0.00    -0.385 OA
ATOM     27  H   UNL     1      -2.814  13.069 -10.455  1.00  0.00    +0.211 HD
ENDBRANCH  21  26
ENDBRANCH  15  16
ENDBRANCH  10  15
BRANCH  12  28
ATOM     28  O   UNL     1      -1.823   7.506 -12.076  1.00  0.00    -0.387 OA
ATOM     29  H   UNL     1      -1.161   6.809 -11.892  1.00  0.00    +0.211 HD
ENDBRANCH  12  28
BRANCH  14  30
ATOM     30  O   UNL     1      -2.458   5.011 -11.456  1.00  0.00    -0.385 OA
ATOM     31  H   UNL     1      -1.748   4.440 -11.108  1.00  0.00    +0.211 HD
ENDBRANCH  14  30
ENDBRANCH   8   9
ENDBRANCH   3   8
BRANCH   5  32
ATOM     32  O   UNL     1       0.463   8.708 -10.053  1.00  0.00    -0.387 OA
ATOM     33  H   UNL     1      -0.412   8.267 -10.104  1.00  0.00    +0.211 HD
ENDBRANCH   5  32
BRANCH   7  34
ATOM     34  O   UNL     1       2.371   6.821 -10.972  1.00  0.00    -0.385 OA
ATOM     35  H   UNL     1       1.905   7.422 -11.585  1.00  0.00    +0.211 HD
ENDBRANCH   7  34
ENDBRANCH   1   2
BRANCH   1  36
ATOM     36  C   UNL     1       5.515   5.625  -8.528  1.00  0.00    +0.179 C 
ATOM     37  C   UNL     1       6.122   6.767  -7.714  1.00  0.00    +0.198 C 
ATOM     38  C   UNL     1       6.624   4.931  -9.346  1.00  0.00    +0.179 C 
ATOM     39  O   UNL     1       7.074   6.309  -6.746  1.00  0.00    -0.347 OA
ATOM     40  C   UNL     1       8.005   5.065  -8.683  1.00  0.00    +0.202 C 
ATOM     41  C   UNL     1       7.846   5.170  -7.152  1.00  0.00    +0.282 C 
BRANCH  38  42
ATOM     42  O   UNL     1       6.710   5.473 -10.681  1.00  0.00    -0.387 OA
ATOM     43  H   UNL     1       6.924   4.711 -11.263  1.00  0.00    +0.211 HD
ENDBRANCH  38  42
BRANCH  40  44
ATOM     44  O   UNL     1       8.666   6.235  -9.211  1.00  0.00    -0.385 OA
ATOM     45  H   UNL     1       8.183   6.990  -8.813  1.00  0.00    +0.211 HD
ENDBRANCH  40  44
BRANCH  41  46
ATOM     46  O   UNL     1       9.140   5.222  -6.551  1.00  0.00    -0.341 OA
BRANCH  46  47
ATOM     47  C   UNL     1       9.483   4.058  -5.782  1.00  0.00    +0.178 C 
BRANCH  47  48
ATOM     48  C   UNL     1       8.183   3.394  -5.315  1.00  0.00    +0.191 C 
BRANCH  48  49
ATOM     49  O   UNL     1       8.447   2.372  -4.363  1.00  0.00    -0.394 OA
ATOM     50  H   UNL     1       8.980   1.696  -4.820  1.00  0.00    +0.210 HD
ENDBRANCH  48  49
ENDBRANCH  47  48
BRANCH  47  51
ATOM     51  C   UNL     1      10.402   3.128  -6.618  1.00  0.00    +0.181 C 
BRANCH  51  52
ATOM     52  C   UNL     1      11.732   2.761  -5.938  1.00  0.00    +0.209 C 
BRANCH  52  53
ATOM     53  C   UNL     1      11.718   1.285  -5.563  1.00  0.00    +0.258 C 
ATOM     54  O   UNL     1      11.008   0.841  -4.658  1.00  0.00    -0.300 OA
ENDBRANCH  52  53
BRANCH  52  55
ATOM     55  O   UNL     1      12.855   2.998  -6.788  1.00  0.00    -0.383 OA
ATOM     56  H   UNL     1      12.585   2.696  -7.680  1.00  0.00    +0.211 HD
ENDBRANCH  52  55
ENDBRANCH  51  52
BRANCH  51  57
ATOM     57  O   UNL     1       9.693   1.903  -6.908  1.00  0.00    -0.387 OA
ATOM     58  H   UNL     1       9.588   1.425  -6.055  1.00  0.00    +0.211 HD
ENDBRANCH  51  57
ENDBRANCH  47  51
ENDBRANCH  46  47
ENDBRANCH  41  46
ENDBRANCH   1  36
TORSDOF 24
ENDMDL
MODEL 8
REMARK VINA RESULT:    -7.695      6.340     12.190
REMARK INTER + INTRA:         -18.889
REMARK INTER:                 -16.121
REMARK INTRA:                  -2.768
REMARK UNBOUND:                -3.097
REMARK SMILES O=C[C@@H](O)[C@@H](O)[C@H](CO)O[C@H]1OC[C@@H](O[C@@H]2OC[C@H](O[C@H]3OC[C@H](O[C@H]4OC[C@H](O)[C@H](O)[C@@H]4O)[C@@H](O)[C@H]3O)[C@H](O)[C@@H]2O)[C@@H](O)[C@H]1O
REMARK SMILES IDX 15 1 16 2 19 3 18 4 39 5 17 6 41 7 20 8 21 9 24 10 23 11
REMARK SMILES IDX 35 12 22 13 37 14 25 15 26 16 28 17 29 18 27 19 31 20 33 21
REMARK SMILES IDX 30 22 32 24 34 26 36 28 38 30 40 32 42 34 14 36 13 37 43 38
REMARK SMILES IDX 12 39 45 40 11 41 44 42 46 44 10 46 7 47 8 48 9 49 5 51 3 52
REMARK SMILES IDX 2 53 1 54 4 55 6 57
REMARK H PARENT 30 23 32 25 34 27 36 29 38 31 40 33 42 35 44 43 46 45 9 50
REMARK H PARENT 4 56 6 58
ROOT
ATOM      1  O   UNL     1      -3.184   9.838  -9.163  1.00  0.00    -0.341 OA
ENDROOT
BRANCH   1   2
ATOM      2  C   UNL     1      -2.995   8.652  -9.940  1.00  0.00    +0.282 C 
ATOM      3  C   UNL     1      -0.953   6.505 -10.074  1.00  0.00    +0.179 C 
ATOM      4  C   UNL     1      -1.701   6.979  -8.817  1.00  0.00    +0.198 C 
ATOM      5  C   UNL     1      -1.288   7.412 -11.282  1.00  0.00    +0.179 C 
ATOM      6  O   UNL     1      -3.002   7.466  -9.135  1.00  0.00    -0.347 OA
ATOM      7  C   UNL     1      -1.731   8.803 -10.825  1.00  0.00    +0.202 C 
BRANCH   3   8
ATOM      8  O   UNL     1       0.473   6.507  -9.896  1.00  0.00    -0.341 OA
BRANCH   8   9
ATOM      9  C   UNL     1       0.899   6.544  -8.529  1.00  0.00    +0.282 C 
ATOM     10  C   UNL     1       3.370   5.715  -9.472  1.00  0.00    +0.179 C 
ATOM     11  C   UNL     1       2.726   4.986  -8.287  1.00  0.00    +0.198 C 
ATOM     12  C   UNL     1       3.196   7.239  -9.311  1.00  0.00    +0.179 C 
ATOM     13  O   UNL     1       1.332   5.251  -8.107  1.00  0.00    -0.347 OA
ATOM     14  C   UNL     1       2.025   7.589  -8.376  1.00  0.00    +0.202 C 
BRANCH  10  15
ATOM     15  O   UNL     1       4.745   5.305  -9.537  1.00  0.00    -0.341 OA
BRANCH  15  16
ATOM     16  C   UNL     1       5.389   5.245  -8.258  1.00  0.00    +0.282 C 
ATOM     17  C   UNL     1       6.783   3.818  -6.975  1.00  0.00    +0.198 C 
ATOM     18  C   UNL     1       8.072   4.606  -7.233  1.00  0.00    +0.171 C 
ATOM     19  O   UNL     1       5.899   3.916  -8.088  1.00  0.00    -0.347 OA
ATOM     20  C   UNL     1       7.889   5.622  -8.374  1.00  0.00    +0.179 C 
ATOM     21  C   UNL     1       6.524   6.303  -8.253  1.00  0.00    +0.202 C 
BRANCH  18  22
ATOM     22  O   UNL     1       8.477   5.300  -6.041  1.00  0.00    -0.388 OA
ATOM     23  H   UNL     1       9.240   4.801  -5.678  1.00  0.00    +0.211 HD
ENDBRANCH  18  22
BRANCH  20  24
ATOM     24  O   UNL     1       8.921   6.623  -8.310  1.00  0.00    -0.387 OA
ATOM     25  H   UNL     1       9.767   6.134  -8.227  1.00  0.00    +0.211 HD
ENDBRANCH  20  24
BRANCH  21  26
ATOM     26  O   UNL     1       6.520   7.048  -7.011  1.00  0.00    -0.385 OA
ATOM     27  H   UNL     1       7.414   7.446  -6.968  1.00  0.00    +0.211 HD
ENDBRANCH  21  26
ENDBRANCH  15  16
ENDBRANCH  10  15
BRANCH  12  28
ATOM     28  O   UNL     1       2.982   7.826 -10.613  1.00  0.00    -0.387 OA
ATOM     29  H   UNL     1       3.863   8.118 -10.925  1.00  0.00    +0.211 HD
ENDBRANCH  12  28
BRANCH  14  30
ATOM     30  O   UNL     1       1.571   8.921  -8.658  1.00  0.00    -0.385 OA
ATOM     31  H   UNL     1       0.606   8.878  -8.789  1.00  0.00    +0.211 HD
ENDBRANCH  14  30
ENDBRANCH   8   9
ENDBRANCH   3   8
BRANCH   5  32
ATOM     32  O   UNL     1      -0.160   7.532 -12.161  1.00  0.00    -0.387 OA
ATOM     33  H   UNL     1      -0.176   8.457 -12.489  1.00  0.00    +0.211 HD
ENDBRANCH   5  32
BRANCH   7  34
ATOM     34  O   UNL     1      -0.648   9.424 -10.105  1.00  0.00    -0.385 OA
ATOM     35  H   UNL     1      -1.003  10.274  -9.781  1.00  0.00    +0.211 HD
ENDBRANCH   7  34
ENDBRANCH   1   2
BRANCH   1  36
ATOM     36  C   UNL     1      -4.535  10.040  -8.744  1.00  0.00    +0.179 C 
ATOM     37  C   UNL     1      -5.476  10.003  -9.947  1.00  0.00    +0.198 C 
ATOM     38  C   UNL     1      -4.659  11.406  -8.036  1.00  0.00    +0.179 C 
ATOM     39  O   UNL     1      -6.855  10.108  -9.572  1.00  0.00    -0.347 OA
ATOM     40  C   UNL     1      -6.042  12.045  -8.246  1.00  0.00    +0.202 C 
ATOM     41  C   UNL     1      -7.108  10.944  -8.434  1.00  0.00    +0.282 C 
BRANCH  38  42
ATOM     42  O   UNL     1      -3.659  12.334  -8.504  1.00  0.00    -0.387 OA
ATOM     43  H   UNL     1      -3.621  13.046  -7.827  1.00  0.00    +0.211 HD
ENDBRANCH  38  42
BRANCH  40  44
ATOM     44  O   UNL     1      -5.988  12.908  -9.403  1.00  0.00    -0.385 OA
ATOM     45  H   UNL     1      -5.155  12.660  -9.855  1.00  0.00    +0.211 HD
ENDBRANCH  40  44
BRANCH  41  46
ATOM     46  O   UNL     1      -8.392  11.555  -8.557  1.00  0.00    -0.341 OA
BRANCH  46  47
ATOM     47  C   UNL     1      -9.178  11.530  -7.354  1.00  0.00    +0.178 C 
BRANCH  47  48
ATOM     48  C   UNL     1      -9.386  12.975  -6.888  1.00  0.00    +0.191 C 
BRANCH  48  49
ATOM     49  O   UNL     1      -9.516  13.041  -5.474  1.00  0.00    -0.394 OA
ATOM     50  H   UNL     1      -9.508  13.986  -5.237  1.00  0.00    +0.210 HD
ENDBRANCH  48  49
ENDBRANCH  47  48
BRANCH  47  51
ATOM     51  C   UNL     1     -10.497  10.751  -7.605  1.00  0.00    +0.181 C 
BRANCH  51  52
ATOM     52  C   UNL     1     -10.322   9.416  -8.350  1.00  0.00    +0.209 C 
BRANCH  52  53
ATOM     53  C   UNL     1     -11.612   8.612  -8.255  1.00  0.00    +0.258 C 
ATOM     54  O   UNL     1     -12.723   9.144  -8.263  1.00  0.00    -0.300 OA
ENDBRANCH  52  53
BRANCH  52  55
ATOM     55  O   UNL     1     -10.011   9.607  -9.730  1.00  0.00    -0.383 OA
ATOM     56  H   UNL     1     -10.379   8.829 -10.198  1.00  0.00    +0.211 HD
ENDBRANCH  52  55
ENDBRANCH  51  52
BRANCH  51  57
ATOM     57  O   UNL     1     -11.129  10.476  -6.334  1.00  0.00    -0.387 OA
ATOM     58  H   UNL     1     -10.477  10.706  -5.635  1.00  0.00    +0.211 HD
ENDBRANCH  51  57
ENDBRANCH  47  51
ENDBRANCH  46  47
ENDBRANCH  41  46
ENDBRANCH   1  36
TORSDOF 24
ENDMDL
MODEL 9
REMARK VINA RESULT:    -7.664      6.391     12.102
REMARK INTER + INTRA:         -18.826
REMARK INTER:                 -16.002
REMARK INTRA:                  -2.824
REMARK UNBOUND:                -3.097
REMARK SMILES O=C[C@@H](O)[C@@H](O)[C@H](CO)O[C@H]1OC[C@@H](O[C@@H]2OC[C@H](O[C@H]3OC[C@H](O[C@H]4OC[C@H](O)[C@H](O)[C@@H]4O)[C@@H](O)[C@H]3O)[C@H](O)[C@@H]2O)[C@@H](O)[C@H]1O
REMARK SMILES IDX 15 1 16 2 19 3 18 4 39 5 17 6 41 7 20 8 21 9 24 10 23 11
REMARK SMILES IDX 35 12 22 13 37 14 25 15 26 16 28 17 29 18 27 19 31 20 33 21
REMARK SMILES IDX 30 22 32 24 34 26 36 28 38 30 40 32 42 34 14 36 13 37 43 38
REMARK SMILES IDX 12 39 45 40 11 41 44 42 46 44 10 46 7 47 8 48 9 49 5 51 3 52
REMARK SMILES IDX 2 53 1 54 4 55 6 57
REMARK H PARENT 30 23 32 25 34 27 36 29 38 31 40 33 42 35 44 43 46 45 9 50
REMARK H PARENT 4 56 6 58
ROOT
ATOM      1  O   UNL     1      -2.937  10.100  -9.591  1.00  0.00    -0.341 OA
ENDROOT
BRANCH   1   2
ATOM      2  C   UNL     1      -2.691   8.994 -10.464  1.00  0.00    +0.282 C 
ATOM      3  C   UNL     1      -0.710   6.791 -10.594  1.00  0.00    +0.179 C 
ATOM      4  C   UNL     1      -1.587   7.162  -9.388  1.00  0.00    +0.198 C 
ATOM      5  C   UNL     1      -0.873   7.831 -11.727  1.00  0.00    +0.179 C 
ATOM      6  O   UNL     1      -2.827   7.732  -9.799  1.00  0.00    -0.347 OA
ATOM      7  C   UNL     1      -1.328   9.184 -11.177  1.00  0.00    +0.202 C 
BRANCH   3   8
ATOM      8  O   UNL     1       0.685   6.717 -10.253  1.00  0.00    -0.341 OA
BRANCH   8   9
ATOM      9  C   UNL     1       0.945   6.303  -8.907  1.00  0.00    +0.282 C 
ATOM     10  C   UNL     1       3.570   5.943  -9.724  1.00  0.00    +0.179 C 
ATOM     11  C   UNL     1       2.856   4.829  -8.949  1.00  0.00    +0.198 C 
ATOM     12  C   UNL     1       3.251   7.313  -9.090  1.00  0.00    +0.179 C 
ATOM     13  O   UNL     1       1.433   4.961  -8.884  1.00  0.00    -0.347 OA
ATOM     14  C   UNL     1       1.954   7.277  -8.263  1.00  0.00    +0.202 C 
BRANCH  10  15
ATOM     15  O   UNL     1       4.972   5.635  -9.731  1.00  0.00    -0.341 OA
BRANCH  15  16
ATOM     16  C   UNL     1       5.530   5.458  -8.423  1.00  0.00    +0.282 C 
ATOM     17  C   UNL     1       6.795   3.893  -7.168  1.00  0.00    +0.198 C 
ATOM     18  C   UNL     1       8.121   4.652  -7.285  1.00  0.00    +0.171 C 
ATOM     19  O   UNL     1       5.988   4.103  -8.323  1.00  0.00    -0.347 OA
ATOM     20  C   UNL     1       8.042   5.755  -8.355  1.00  0.00    +0.179 C 
ATOM     21  C   UNL     1       6.693   6.473  -8.267  1.00  0.00    +0.202 C 
BRANCH  18  22
ATOM     22  O   UNL     1       8.469   5.242  -6.021  1.00  0.00    -0.388 OA
ATOM     23  H   UNL     1       8.309   4.552  -5.342  1.00  0.00    +0.211 HD
ENDBRANCH  18  22
BRANCH  20  24
ATOM     24  O   UNL     1       9.098   6.713  -8.151  1.00  0.00    -0.387 OA
ATOM     25  H   UNL     1       9.040   7.343  -8.900  1.00  0.00    +0.211 HD
ENDBRANCH  20  24
BRANCH  21  26
ATOM     26  O   UNL     1       6.632   7.124  -6.975  1.00  0.00    -0.385 OA
ATOM     27  H   UNL     1       7.047   6.481  -6.363  1.00  0.00    +0.211 HD
ENDBRANCH  21  26
ENDBRANCH  15  16
ENDBRANCH  10  15
BRANCH  12  28
ATOM     28  O   UNL     1       3.140   8.299 -10.139  1.00  0.00    -0.387 OA
ATOM     29  H   UNL     1       2.239   8.675 -10.062  1.00  0.00    +0.211 HD
ENDBRANCH  12  28
BRANCH  14  30
ATOM     30  O   UNL     1       1.426   8.606  -8.145  1.00  0.00    -0.385 OA
ATOM     31  H   UNL     1       0.574   8.624  -8.620  1.00  0.00    +0.211 HD
ENDBRANCH  14  30
ENDBRANCH   8   9
ENDBRANCH   3   8
BRANCH   5  32
ATOM     32  O   UNL     1       0.354   7.996 -12.453  1.00  0.00    -0.387 OA
ATOM     33  H   UNL     1       0.136   7.802 -13.391  1.00  0.00    +0.211 HD
ENDBRANCH   5  32
BRANCH   7  34
ATOM     34  O   UNL     1      -0.320   9.683 -10.275  1.00  0.00    -0.385 OA
ATOM     35  H   UNL     1      -0.563   9.336  -9.395  1.00  0.00    +0.211 HD
ENDBRANCH   7  34
ENDBRANCH   1   2
BRANCH   1  36
ATOM     36  C   UNL     1      -4.291  10.558  -9.613  1.00  0.00    +0.179 C 
ATOM     37  C   UNL     1      -4.350  12.020 -10.052  1.00  0.00    +0.198 C 
ATOM     38  C   UNL     1      -4.908  10.417  -8.206  1.00  0.00    +0.179 C 
ATOM     39  O   UNL     1      -5.692  12.504 -10.180  1.00  0.00    -0.347 OA
ATOM     40  C   UNL     1      -5.955  11.507  -7.920  1.00  0.00    +0.202 C 
ATOM     41  C   UNL     1      -6.624  11.953  -9.237  1.00  0.00    +0.282 C 
BRANCH  38  42
ATOM     42  O   UNL     1      -3.897  10.483  -7.178  1.00  0.00    -0.387 OA
ATOM     43  H   UNL     1      -3.264   9.761  -7.384  1.00  0.00    +0.211 HD
ENDBRANCH  38  42
BRANCH  40  44
ATOM     44  O   UNL     1      -5.305  12.622  -7.272  1.00  0.00    -0.385 OA
ATOM     45  H   UNL     1      -5.363  12.418  -6.315  1.00  0.00    +0.211 HD
ENDBRANCH  40  44
BRANCH  41  46
ATOM     46  O   UNL     1      -7.639  12.912  -8.943  1.00  0.00    -0.341 OA
BRANCH  46  47
ATOM     47  C   UNL     1      -8.978  12.393  -8.998  1.00  0.00    +0.178 C 
BRANCH  47  48
ATOM     48  C   UNL     1      -8.943  11.062  -9.757  1.00  0.00    +0.191 C 
BRANCH  48  49
ATOM     49  O   UNL     1      -9.579  10.033  -9.010  1.00  0.00    -0.394 OA
ATOM     50  H   UNL     1      -8.930   9.724  -8.353  1.00  0.00    +0.210 HD
ENDBRANCH  48  49
ENDBRANCH  47  48
BRANCH  47  51
ATOM     51  C   UNL     1      -9.560  12.286  -7.563  1.00  0.00    +0.181 C 
BRANCH  51  52
ATOM     52  C   UNL     1      -9.074  13.374  -6.591  1.00  0.00    +0.209 C 
BRANCH  52  53
ATOM     53  C   UNL     1     -10.231  13.811  -5.701  1.00  0.00    +0.258 C 
ATOM     54  O   UNL     1     -10.762  13.050  -4.890  1.00  0.00    -0.300 OA
ENDBRANCH  52  53
BRANCH  52  55
ATOM     55  O   UNL     1      -8.012  12.915  -5.755  1.00  0.00    -0.383 OA
ATOM     56  H   UNL     1      -7.185  13.237  -6.170  1.00  0.00    +0.211 HD
ENDBRANCH  52  55
ENDBRANCH  51  52
BRANCH  51  57
ATOM     57  O   UNL     1     -11.002  12.359  -7.634  1.00  0.00    -0.387 OA
ATOM     58  H   UNL     1     -11.261  13.241  -7.286  1.00  0.00    +0.211 HD
ENDBRANCH  51  57
ENDBRANCH  47  51
ENDBRANCH  46  47
ENDBRANCH  41  46
ENDBRANCH   1  36
TORSDOF 24
ENDMDL
