MODEL 1
REMARK VINA RESULT:    -7.389      0.000      0.000
REMARK INTER + INTRA:         -12.040
REMARK INTER:                 -10.844
REMARK INTRA:                  -1.196
REMARK UNBOUND:                -1.196
REMARK SMILES O=S(=O)(O)OC[C@@H]1O[C@H](O[C@H]2[C@@H]3OC[C@H]2O[C@@H](O)[C@H]3O)[C@@H](O)[C@H](O)[C@@H]1O
REMARK SMILES IDX 9 1 21 2 23 3 25 4 7 5 8 6 10 7 11 8 14 9 15 10 13 11 16 12
REMARK SMILES IDX 12 13 17 14 19 15 18 16 20 18 22 20 24 22 6 24 5 25 2 26
REMARK SMILES IDX 1 27 3 28 4 29 26 31
REMARK H PARENT 18 17 20 19 22 21 24 23 4 30 26 32
ROOT
ATOM      1  C   UNL     1      -4.386   6.095  -9.574  1.00  0.00    +0.282 C 
ATOM      2  C   UNL     1      -3.281   6.026 -10.646  1.00  0.00    +0.202 C 
ATOM      3  C   UNL     1      -3.922   5.622 -11.963  1.00  0.00    +0.179 C 
ATOM      4  C   UNL     1      -4.892   6.719 -12.411  1.00  0.00    +0.177 C 
ATOM      5  C   UNL     1      -5.648   7.374 -11.230  1.00  0.00    +0.180 C 
ATOM      6  O   UNL     1      -5.652   6.544 -10.054  1.00  0.00    -0.341 OA
ENDROOT
BRANCH   1   7
ATOM      7  O   UNL     1      -3.889   6.875  -8.483  1.00  0.00    -0.341 OA
BRANCH   7   8
ATOM      8  C   UNL     1      -4.546   6.590  -7.253  1.00  0.00    +0.184 C 
ATOM      9  C   UNL     1      -4.667   6.587  -4.912  1.00  0.00    +0.195 C 
ATOM     10  C   UNL     1      -4.022   7.370  -6.056  1.00  0.00    +0.179 C 
ATOM     11  O   UNL     1      -4.733   5.209  -5.362  1.00  0.00    -0.370 OA
ATOM     12  O   UNL     1      -2.584   7.340  -6.028  1.00  0.00    -0.342 OA
ATOM     13  C   UNL     1      -4.234   5.195  -6.724  1.00  0.00    +0.184 C 
ATOM     14  C   UNL     1      -1.982   6.053  -5.934  1.00  0.00    +0.279 C 
ATOM     15  C   UNL     1      -2.718   4.953  -6.730  1.00  0.00    +0.202 C 
BRANCH  14  16
ATOM     16  O   UNL     1      -1.887   5.692  -4.559  1.00  0.00    -0.366 OA
ATOM     17  H   UNL     1      -0.968   5.392  -4.448  1.00  0.00    +0.213 HD
ENDBRANCH  14  16
BRANCH  15  18
ATOM     18  O   UNL     1      -2.419   3.654  -6.202  1.00  0.00    -0.385 OA
ATOM     19  H   UNL     1      -1.519   3.754  -5.825  1.00  0.00    +0.211 HD
ENDBRANCH  15  18
ENDBRANCH   7   8
ENDBRANCH   1   7
BRANCH   2  20
ATOM     20  O   UNL     1      -2.271   5.064 -10.298  1.00  0.00    -0.385 OA
ATOM     21  H   UNL     1      -1.413   5.509 -10.443  1.00  0.00    +0.211 HD
ENDBRANCH   2  20
BRANCH   3  22
ATOM     22  O   UNL     1      -2.918   5.437 -12.974  1.00  0.00    -0.387 OA
ATOM     23  H   UNL     1      -2.275   6.162 -12.824  1.00  0.00    +0.211 HD
ENDBRANCH   3  22
BRANCH   5  24
ATOM     24  C   UNL     1      -5.229   8.821 -10.909  1.00  0.00    +0.220 C 
BRANCH  24  25
ATOM     25  O   UNL     1      -5.857   9.692 -11.846  1.00  0.00    -0.245 OA
BRANCH  25  26
ATOM     26  S   UNL     1      -5.024  10.992 -12.347  1.00  0.00    +0.397 S 
ATOM     27  O   UNL     1      -5.855  11.813 -13.199  1.00  0.00    -0.169 OA
ATOM     28  O   UNL     1      -3.704  10.560 -12.745  1.00  0.00    -0.169 OA
BRANCH  26  29
ATOM     29  O   UNL     1      -4.795  11.793 -10.970  1.00  0.00    -0.264 OA
ATOM     30  H   UNL     1      -4.031  12.389 -11.110  1.00  0.00    +0.236 HD
ENDBRANCH  26  29
ENDBRANCH  25  26
ENDBRANCH  24  25
ENDBRANCH   5  24
BRANCH   4  31
ATOM     31  O   UNL     1      -4.177   7.693 -13.179  1.00  0.00    -0.387 OA
ATOM     32  H   UNL     1      -4.851   8.367 -13.422  1.00  0.00    +0.211 HD
ENDBRANCH   4  31
TORSDOF 11
ENDMDL
MODEL 2
REMARK VINA RESULT:    -7.230      3.069      5.836
REMARK INTER + INTRA:         -11.808
REMARK INTER:                 -10.507
REMARK INTRA:                  -1.301
REMARK UNBOUND:                -1.196
REMARK SMILES O=S(=O)(O)OC[C@@H]1O[C@H](O[C@H]2[C@@H]3OC[C@H]2O[C@@H](O)[C@H]3O)[C@@H](O)[C@H](O)[C@@H]1O
REMARK SMILES IDX 9 1 21 2 23 3 25 4 7 5 8 6 10 7 11 8 14 9 15 10 13 11 16 12
REMARK SMILES IDX 12 13 17 14 19 15 18 16 20 18 22 20 24 22 6 24 5 25 2 26
REMARK SMILES IDX 1 27 3 28 4 29 26 31
REMARK H PARENT 18 17 20 19 22 21 24 23 4 30 26 32
ROOT
ATOM      1  C   UNL     1      -1.869   4.985  -5.152  1.00  0.00    +0.282 C 
ATOM      2  C   UNL     1      -2.859   3.825  -5.372  1.00  0.00    +0.202 C 
ATOM      3  C   UNL     1      -4.208   4.240  -4.810  1.00  0.00    +0.179 C 
ATOM      4  C   UNL     1      -4.747   5.427  -5.612  1.00  0.00    +0.177 C 
ATOM      5  C   UNL     1      -3.638   6.413  -6.049  1.00  0.00    +0.180 C 
ATOM      6  O   UNL     1      -2.446   6.286  -5.251  1.00  0.00    -0.341 OA
ENDROOT
BRANCH   1   7
ATOM      7  O   UNL     1      -0.764   4.792  -6.039  1.00  0.00    -0.341 OA
BRANCH   7   8
ATOM      8  C   UNL     1       0.412   5.477  -5.619  1.00  0.00    +0.184 C 
ATOM      9  C   UNL     1       2.125   7.046  -5.925  1.00  0.00    +0.195 C 
ATOM     10  C   UNL     1       0.678   6.787  -6.345  1.00  0.00    +0.179 C 
ATOM     11  O   UNL     1       2.739   5.739  -5.790  1.00  0.00    -0.370 OA
ATOM     12  O   UNL     1       0.518   6.616  -7.764  1.00  0.00    -0.342 OA
ATOM     13  C   UNL     1       1.693   4.763  -6.034  1.00  0.00    +0.184 C 
ATOM     14  C   UNL     1       1.371   5.660  -8.384  1.00  0.00    +0.279 C 
ATOM     15  C   UNL     1       1.641   4.404  -7.525  1.00  0.00    +0.202 C 
BRANCH  14  16
ATOM     16  O   UNL     1       2.598   6.297  -8.730  1.00  0.00    -0.366 OA
ATOM     17  H   UNL     1       2.329   7.137  -9.144  1.00  0.00    +0.213 HD
ENDBRANCH  14  16
BRANCH  15  18
ATOM     18  O   UNL     1       2.859   3.764  -7.926  1.00  0.00    -0.385 OA
ATOM     19  H   UNL     1       3.245   3.441  -7.084  1.00  0.00    +0.211 HD
ENDBRANCH  15  18
ENDBRANCH   7   8
ENDBRANCH   1   7
BRANCH   2  20
ATOM     20  O   UNL     1      -2.420   2.626  -4.711  1.00  0.00    -0.385 OA
ATOM     21  H   UNL     1      -3.231   2.154  -4.440  1.00  0.00    +0.211 HD
ENDBRANCH   2  20
BRANCH   3  22
ATOM     22  O   UNL     1      -5.142   3.150  -4.892  1.00  0.00    -0.387 OA
ATOM     23  H   UNL     1      -5.381   2.954  -3.961  1.00  0.00    +0.211 HD
ENDBRANCH   3  22
BRANCH   5  24
ATOM     24  C   UNL     1      -3.321   6.412  -7.556  1.00  0.00    +0.220 C 
BRANCH  24  25
ATOM     25  O   UNL     1      -4.212   7.315  -8.207  1.00  0.00    -0.245 OA
BRANCH  25  26
ATOM     26  S   UNL     1      -4.738   6.921  -9.691  1.00  0.00    +0.397 S 
ATOM     27  O   UNL     1      -3.791   7.372 -10.686  1.00  0.00    -0.169 OA
ATOM     28  O   UNL     1      -6.147   7.234  -9.771  1.00  0.00    -0.169 OA
BRANCH  26  29
ATOM     29  O   UNL     1      -4.677   5.313  -9.651  1.00  0.00    -0.264 OA
ATOM     30  H   UNL     1      -3.991   5.070  -8.996  1.00  0.00    +0.236 HD
ENDBRANCH  26  29
ENDBRANCH  25  26
ENDBRANCH  24  25
ENDBRANCH   5  24
BRANCH   4  31
ATOM     31  O   UNL     1      -5.485   4.937  -6.737  1.00  0.00    -0.387 OA
ATOM     32  H   UNL     1      -4.910   5.120  -7.514  1.00  0.00    +0.211 HD
ENDBRANCH   4  31
TORSDOF 11
ENDMDL
MODEL 3
REMARK VINA RESULT:    -6.981      1.305      1.761
REMARK INTER + INTRA:         -11.441
REMARK INTER:                 -10.535
REMARK INTRA:                  -0.906
REMARK UNBOUND:                -1.196
REMARK SMILES O=S(=O)(O)OC[C@@H]1O[C@H](O[C@H]2[C@@H]3OC[C@H]2O[C@@H](O)[C@H]3O)[C@@H](O)[C@H](O)[C@@H]1O
REMARK SMILES IDX 9 1 21 2 23 3 25 4 7 5 8 6 10 7 11 8 14 9 15 10 13 11 16 12
REMARK SMILES IDX 12 13 17 14 19 15 18 16 20 18 22 20 24 22 6 24 5 25 2 26
REMARK SMILES IDX 1 27 3 28 4 29 26 31
REMARK H PARENT 18 17 20 19 22 21 24 23 4 30 26 32
ROOT
ATOM      1  C   UNL     1      -4.340   5.876  -9.430  1.00  0.00    +0.282 C 
ATOM      2  C   UNL     1      -3.276   5.954 -10.542  1.00  0.00    +0.202 C 
ATOM      3  C   UNL     1      -3.868   5.356 -11.807  1.00  0.00    +0.179 C 
ATOM      4  C   UNL     1      -5.044   6.219 -12.272  1.00  0.00    +0.177 C 
ATOM      5  C   UNL     1      -5.876   6.788 -11.098  1.00  0.00    +0.180 C 
ATOM      6  O   UNL     1      -5.684   6.045  -9.879  1.00  0.00    -0.341 OA
ENDROOT
BRANCH   1   7
ATOM      7  O   UNL     1      -3.970   6.802  -8.404  1.00  0.00    -0.341 OA
BRANCH   7   8
ATOM      8  C   UNL     1      -4.584   6.517  -7.151  1.00  0.00    +0.184 C 
ATOM      9  C   UNL     1      -4.635   6.538  -4.808  1.00  0.00    +0.195 C 
ATOM     10  C   UNL     1      -4.041   7.321  -5.980  1.00  0.00    +0.179 C 
ATOM     11  O   UNL     1      -4.685   5.154  -5.241  1.00  0.00    -0.370 OA
ATOM     12  O   UNL     1      -2.602   7.321  -5.994  1.00  0.00    -0.342 OA
ATOM     13  C   UNL     1      -4.227   5.134  -6.618  1.00  0.00    +0.184 C 
ATOM     14  C   UNL     1      -1.971   6.049  -5.905  1.00  0.00    +0.279 C 
ATOM     15  C   UNL     1      -2.707   4.924  -6.667  1.00  0.00    +0.202 C 
BRANCH  14  16
ATOM     16  O   UNL     1      -1.828   5.705  -4.529  1.00  0.00    -0.366 OA
ATOM     17  H   UNL     1      -0.878   5.816  -4.347  1.00  0.00    +0.213 HD
ENDBRANCH  14  16
BRANCH  15  18
ATOM     18  O   UNL     1      -2.365   3.638  -6.134  1.00  0.00    -0.385 OA
ATOM     19  H   UNL     1      -2.956   3.019  -6.613  1.00  0.00    +0.211 HD
ENDBRANCH  15  18
ENDBRANCH   7   8
ENDBRANCH   1   7
BRANCH   2  20
ATOM     20  O   UNL     1      -2.089   5.226 -10.185  1.00  0.00    -0.385 OA
ATOM     21  H   UNL     1      -1.699   4.916 -11.026  1.00  0.00    +0.211 HD
ENDBRANCH   2  20
BRANCH   3  22
ATOM     22  O   UNL     1      -2.878   5.305 -12.848  1.00  0.00    -0.387 OA
ATOM     23  H   UNL     1      -3.363   4.993 -13.640  1.00  0.00    +0.211 HD
ENDBRANCH   3  22
BRANCH   5  24
ATOM     24  C   UNL     1      -5.734   8.304 -10.873  1.00  0.00    +0.220 C 
BRANCH  24  25
ATOM     25  O   UNL     1      -6.301   8.983 -11.992  1.00  0.00    -0.245 OA
BRANCH  25  26
ATOM     26  S   UNL     1      -7.915   8.953 -12.157  1.00  0.00    +0.397 S 
ATOM     27  O   UNL     1      -8.541   8.785 -10.865  1.00  0.00    -0.169 OA
ATOM     28  O   UNL     1      -8.241   8.111 -13.286  1.00  0.00    -0.169 OA
BRANCH  26  29
ATOM     29  O   UNL     1      -8.227  10.451 -12.660  1.00  0.00    -0.264 OA
ATOM     30  H   UNL     1      -9.098  10.426 -13.105  1.00  0.00    +0.236 HD
ENDBRANCH  26  29
ENDBRANCH  25  26
ENDBRANCH  24  25
ENDBRANCH   5  24
BRANCH   4  31
ATOM     31  O   UNL     1      -4.554   7.262 -13.121  1.00  0.00    -0.387 OA
ATOM     32  H   UNL     1      -3.746   6.888 -13.539  1.00  0.00    +0.211 HD
ENDBRANCH   4  31
TORSDOF 11
ENDMDL
MODEL 4
REMARK VINA RESULT:    -6.530      2.852      7.251
REMARK INTER + INTRA:         -10.779
REMARK INTER:                  -9.761
REMARK INTRA:                  -1.019
REMARK UNBOUND:                -1.196
REMARK SMILES O=S(=O)(O)OC[C@@H]1O[C@H](O[C@H]2[C@@H]3OC[C@H]2O[C@@H](O)[C@H]3O)[C@@H](O)[C@H](O)[C@@H]1O
REMARK SMILES IDX 9 1 21 2 23 3 25 4 7 5 8 6 10 7 11 8 14 9 15 10 13 11 16 12
REMARK SMILES IDX 12 13 17 14 19 15 18 16 20 18 22 20 24 22 6 24 5 25 2 26
REMARK SMILES IDX 1 27 3 28 4 29 26 31
REMARK H PARENT 18 17 20 19 22 21 24 23 4 30 26 32
ROOT
ATOM      1  C   UNL     1      -4.181   5.891  -8.114  1.00  0.00    +0.282 C 
ATOM      2  C   UNL     1      -4.357   6.839  -6.911  1.00  0.00    +0.202 C 
ATOM      3  C   UNL     1      -4.450   5.994  -5.652  1.00  0.00    +0.179 C 
ATOM      4  C   UNL     1      -3.123   5.261  -5.435  1.00  0.00    +0.177 C 
ATOM      5  C   UNL     1      -2.468   4.796  -6.758  1.00  0.00    +0.180 C 
ATOM      6  O   UNL     1      -3.415   4.719  -7.841  1.00  0.00    -0.341 OA
ENDROOT
BRANCH   1   7
ATOM      7  O   UNL     1      -3.665   6.659  -9.205  1.00  0.00    -0.341 OA
BRANCH   7   8
ATOM      8  C   UNL     1      -3.579   5.916 -10.416  1.00  0.00    +0.184 C 
ATOM      9  C   UNL     1      -2.800   5.583 -12.601  1.00  0.00    +0.195 C 
ATOM     10  C   UNL     1      -2.393   6.271 -11.298  1.00  0.00    +0.179 C 
ATOM     11  O   UNL     1      -4.248   5.657 -12.652  1.00  0.00    -0.370 OA
ATOM     12  O   UNL     1      -2.269   7.699 -11.422  1.00  0.00    -0.342 OA
ATOM     13  C   UNL     1      -4.675   6.277 -11.412  1.00  0.00    +0.184 C 
ATOM     14  C   UNL     1      -3.382   8.381 -11.991  1.00  0.00    +0.279 C 
ATOM     15  C   UNL     1      -4.754   7.801 -11.582  1.00  0.00    +0.202 C 
BRANCH  14  16
ATOM     16  O   UNL     1      -3.244   8.376 -13.410  1.00  0.00    -0.366 OA
ATOM     17  H   UNL     1      -4.159   8.375 -13.744  1.00  0.00    +0.213 HD
ENDBRANCH  14  16
BRANCH  15  18
ATOM     18  O   UNL     1      -5.760   8.143 -12.544  1.00  0.00    -0.385 OA
ATOM     19  H   UNL     1      -6.589   8.171 -12.020  1.00  0.00    +0.211 HD
ENDBRANCH  15  18
ENDBRANCH   7   8
ENDBRANCH   1   7
BRANCH   2  20
ATOM     20  O   UNL     1      -5.549   7.632  -7.037  1.00  0.00    -0.385 OA
ATOM     21  H   UNL     1      -6.242   7.161  -6.534  1.00  0.00    +0.211 HD
ENDBRANCH   2  20
BRANCH   3  22
ATOM     22  O   UNL     1      -4.723   6.824  -4.511  1.00  0.00    -0.387 OA
ATOM     23  H   UNL     1      -4.473   7.729  -4.793  1.00  0.00    +0.211 HD
ENDBRANCH   3  22
BRANCH   5  24
ATOM     24  C   UNL     1      -1.197   5.564  -7.162  1.00  0.00    +0.220 C 
BRANCH  24  25
ATOM     25  O   UNL     1      -0.123   5.130  -6.330  1.00  0.00    -0.245 OA
BRANCH  25  26
ATOM     26  S   UNL     1       1.392   5.412  -6.841  1.00  0.00    +0.397 S 
ATOM     27  O   UNL     1       2.308   5.358  -5.724  1.00  0.00    -0.169 OA
ATOM     28  O   UNL     1       1.361   6.529  -7.759  1.00  0.00    -0.169 OA
BRANCH  26  29
ATOM     29  O   UNL     1       1.676   4.128  -7.769  1.00  0.00    -0.264 OA
ATOM     30  H   UNL     1       2.643   3.981  -7.764  1.00  0.00    +0.236 HD
ENDBRANCH  26  29
ENDBRANCH  25  26
ENDBRANCH  24  25
ENDBRANCH   5  24
BRANCH   4  31
ATOM     31  O   UNL     1      -2.241   6.100  -4.681  1.00  0.00    -0.387 OA
ATOM     32  H   UNL     1      -2.537   7.017  -4.878  1.00  0.00    +0.211 HD
ENDBRANCH   4  31
TORSDOF 11
ENDMDL
MODEL 5
REMARK VINA RESULT:    -6.319      9.129     12.292
REMARK INTER + INTRA:         -10.470
REMARK INTER:                  -8.793
REMARK INTRA:                  -1.677
REMARK UNBOUND:                -1.196
REMARK SMILES O=S(=O)(O)OC[C@@H]1O[C@H](O[C@H]2[C@@H]3OC[C@H]2O[C@@H](O)[C@H]3O)[C@@H](O)[C@H](O)[C@@H]1O
REMARK SMILES IDX 9 1 21 2 23 3 25 4 7 5 8 6 10 7 11 8 14 9 15 10 13 11 16 12
REMARK SMILES IDX 12 13 17 14 19 15 18 16 20 18 22 20 24 22 6 24 5 25 2 26
REMARK SMILES IDX 1 27 3 28 4 29 26 31
REMARK H PARENT 18 17 20 19 22 21 24 23 4 30 26 32
ROOT
ATOM      1  C   UNL     1     -10.906   3.595  -3.860  1.00  0.00    +0.282 C 
ATOM      2  C   UNL     1      -9.790   3.555  -4.921  1.00  0.00    +0.202 C 
ATOM      3  C   UNL     1      -8.553   4.213  -4.334  1.00  0.00    +0.179 C 
ATOM      4  C   UNL     1      -8.053   3.383  -3.148  1.00  0.00    +0.177 C 
ATOM      5  C   UNL     1      -9.203   2.771  -2.313  1.00  0.00    +0.180 C 
ATOM      6  O   UNL     1     -10.452   3.459  -2.514  1.00  0.00    -0.341 OA
ENDROOT
BRANCH   1   7
ATOM      7  O   UNL     1     -11.890   2.622  -4.222  1.00  0.00    -0.341 OA
BRANCH   7   8
ATOM      8  C   UNL     1     -13.052   3.199  -4.809  1.00  0.00    +0.184 C 
ATOM      9  C   UNL     1     -15.349   3.660  -4.854  1.00  0.00    +0.195 C 
ATOM     10  C   UNL     1     -14.225   3.376  -3.857  1.00  0.00    +0.179 C 
ATOM     11  O   UNL     1     -15.026   2.896  -6.044  1.00  0.00    -0.370 OA
ATOM     12  O   UNL     1     -14.433   2.177  -3.089  1.00  0.00    -0.342 OA
ATOM     13  C   UNL     1     -13.743   2.266  -5.796  1.00  0.00    +0.184 C 
ATOM     14  C   UNL     1     -14.721   0.996  -3.830  1.00  0.00    +0.279 C 
ATOM     15  C   UNL     1     -13.947   0.883  -5.162  1.00  0.00    +0.202 C 
BRANCH  14  16
ATOM     16  O   UNL     1     -16.125   0.935  -4.065  1.00  0.00    -0.366 OA
ATOM     17  H   UNL     1     -16.205   0.718  -5.011  1.00  0.00    +0.213 HD
ENDBRANCH  14  16
BRANCH  15  18
ATOM     18  O   UNL     1     -14.628   0.012  -6.075  1.00  0.00    -0.385 OA
ATOM     19  H   UNL     1     -15.565   0.300  -6.022  1.00  0.00    +0.211 HD
ENDBRANCH  15  18
ENDBRANCH   7   8
ENDBRANCH   1   7
BRANCH   2  20
ATOM     20  O   UNL     1     -10.176   4.256  -6.116  1.00  0.00    -0.385 OA
ATOM     21  H   UNL     1     -11.118   4.042  -6.262  1.00  0.00    +0.211 HD
ENDBRANCH   2  20
BRANCH   3  22
ATOM     22  O   UNL     1      -7.513   4.299  -5.323  1.00  0.00    -0.387 OA
ATOM     23  H   UNL     1      -6.680   4.340  -4.808  1.00  0.00    +0.211 HD
ENDBRANCH   3  22
BRANCH   5  24
ATOM     24  C   UNL     1      -9.362   1.245  -2.440  1.00  0.00    +0.220 C 
BRANCH  24  25
ATOM     25  O   UNL     1      -9.886   0.741  -1.214  1.00  0.00    -0.245 OA
BRANCH  25  26
ATOM     26  S   UNL     1     -11.452   0.313  -1.180  1.00  0.00    +0.397 S 
ATOM     27  O   UNL     1     -11.775  -0.275   0.100  1.00  0.00    -0.169 OA
ATOM     28  O   UNL     1     -11.772  -0.338  -2.430  1.00  0.00    -0.169 OA
BRANCH  26  29
ATOM     29  O   UNL     1     -12.190   1.742  -1.262  1.00  0.00    -0.264 OA
ATOM     30  H   UNL     1     -12.845   1.767  -0.535  1.00  0.00    +0.236 HD
ENDBRANCH  26  29
ENDBRANCH  25  26
ENDBRANCH  24  25
ENDBRANCH   5  24
BRANCH   4  31
ATOM     31  O   UNL     1      -7.159   2.372  -3.627  1.00  0.00    -0.387 OA
ATOM     32  H   UNL     1      -6.740   2.764  -4.426  1.00  0.00    +0.211 HD
ENDBRANCH   4  31
TORSDOF 11
ENDMDL
MODEL 6
REMARK VINA RESULT:    -6.276     20.723     22.873
REMARK INTER + INTRA:         -10.407
REMARK INTER:                  -8.578
REMARK INTRA:                  -1.829
REMARK UNBOUND:                -1.196
REMARK SMILES O=S(=O)(O)OC[C@@H]1O[C@H](O[C@H]2[C@@H]3OC[C@H]2O[C@@H](O)[C@H]3O)[C@@H](O)[C@H](O)[C@@H]1O
REMARK SMILES IDX 9 1 21 2 23 3 25 4 7 5 8 6 10 7 11 8 14 9 15 10 13 11 16 12
REMARK SMILES IDX 12 13 17 14 19 15 18 16 20 18 22 20 24 22 6 24 5 25 2 26
REMARK SMILES IDX 1 27 3 28 4 29 26 31
REMARK H PARENT 18 17 20 19 22 21 24 23 4 30 26 32
ROOT
ATOM      1  C   UNL     1       1.349 -14.349 -14.579  1.00  0.00    +0.282 C 
ATOM      2  C   UNL     1       1.852 -12.988 -14.060  1.00  0.00    +0.202 C 
ATOM      3  C   UNL     1       3.369 -13.038 -13.992  1.00  0.00    +0.179 C 
ATOM      4  C   UNL     1       3.933 -13.197 -15.407  1.00  0.00    +0.177 C 
ATOM      5  C   UNL     1       3.063 -14.110 -16.304  1.00  0.00    +0.180 C 
ATOM      6  O   UNL     1       2.202 -14.973 -15.536  1.00  0.00    -0.341 OA
ENDROOT
BRANCH   1   7
ATOM      7  O   UNL     1       0.011 -14.169 -15.052  1.00  0.00    -0.341 OA
BRANCH   7   8
ATOM      8  C   UNL     1      -0.942 -14.942 -14.330  1.00  0.00    +0.184 C 
ATOM      9  C   UNL     1      -3.029 -15.984 -14.099  1.00  0.00    +0.195 C 
ATOM     10  C   UNL     1      -2.039 -15.560 -15.184  1.00  0.00    +0.179 C 
ATOM     11  O   UNL     1      -2.906 -14.997 -13.043  1.00  0.00    -0.370 OA
ATOM     12  O   UNL     1      -2.575 -14.584 -16.096  1.00  0.00    -0.342 OA
ATOM     13  C   UNL     1      -1.845 -14.092 -13.443  1.00  0.00    +0.184 C 
ATOM     14  C   UNL     1      -3.160 -13.426 -15.507  1.00  0.00    +0.279 C 
ATOM     15  C   UNL     1      -2.424 -12.920 -14.247  1.00  0.00    +0.202 C 
BRANCH  14  16
ATOM     16  O   UNL     1      -4.525 -13.706 -15.207  1.00  0.00    -0.366 OA
ATOM     17  H   UNL     1      -5.023 -13.317 -15.948  1.00  0.00    +0.213 HD
ENDBRANCH  14  16
BRANCH  15  18
ATOM     18  O   UNL     1      -3.301 -12.138 -13.425  1.00  0.00    -0.385 OA
ATOM     19  H   UNL     1      -3.344 -11.271 -13.883  1.00  0.00    +0.211 HD
ENDBRANCH  15  18
ENDBRANCH   7   8
ENDBRANCH   1   7
BRANCH   2  20
ATOM     20  O   UNL     1       1.330 -12.700 -12.751  1.00  0.00    -0.385 OA
ATOM     21  H   UNL     1       0.713 -11.950 -12.865  1.00  0.00    +0.211 HD
ENDBRANCH   2  20
BRANCH   3  22
ATOM     22  O   UNL     1       3.885 -11.830 -13.410  1.00  0.00    -0.387 OA
ATOM     23  H   UNL     1       3.985 -11.212 -14.164  1.00  0.00    +0.211 HD
ENDBRANCH   3  22
BRANCH   5  24
ATOM     24  C   UNL     1       2.296 -13.384 -17.424  1.00  0.00    +0.220 C 
BRANCH  24  25
ATOM     25  O   UNL     1       1.933 -14.341 -18.416  1.00  0.00    -0.245 OA
BRANCH  25  26
ATOM     26  S   UNL     1       0.354 -14.664 -18.614  1.00  0.00    +0.397 S 
ATOM     27  O   UNL     1       0.027 -15.928 -17.993  1.00  0.00    -0.169 OA
ATOM     28  O   UNL     1      -0.003 -14.363 -19.981  1.00  0.00    -0.169 OA
BRANCH  26  29
ATOM     29  O   UNL     1      -0.336 -13.499 -17.744  1.00  0.00    -0.264 OA
ATOM     30  H   UNL     1      -0.756 -13.930 -16.971  1.00  0.00    +0.236 HD
ENDBRANCH  26  29
ENDBRANCH  25  26
ENDBRANCH  24  25
ENDBRANCH   5  24
BRANCH   4  31
ATOM     31  O   UNL     1       4.107 -11.902 -15.991  1.00  0.00    -0.387 OA
ATOM     32  H   UNL     1       4.547 -12.072 -16.854  1.00  0.00    +0.211 HD
ENDBRANCH   4  31
TORSDOF 11
ENDMDL
MODEL 7
REMARK VINA RESULT:    -6.250     11.977     14.639
REMARK INTER + INTRA:         -10.369
REMARK INTER:                  -8.635
REMARK INTRA:                  -1.735
REMARK UNBOUND:                -1.196
REMARK SMILES O=S(=O)(O)OC[C@@H]1O[C@H](O[C@H]2[C@@H]3OC[C@H]2O[C@@H](O)[C@H]3O)[C@@H](O)[C@H](O)[C@@H]1O
REMARK SMILES IDX 9 1 21 2 23 3 25 4 7 5 8 6 10 7 11 8 14 9 15 10 13 11 16 12
REMARK SMILES IDX 12 13 17 14 19 15 18 16 20 18 22 20 24 22 6 24 5 25 2 26
REMARK SMILES IDX 1 27 3 28 4 29 26 31
REMARK H PARENT 18 17 20 19 22 21 24 23 4 30 26 32
ROOT
ATOM      1  C   UNL     1     -14.767   0.514  -2.776  1.00  0.00    +0.282 C 
ATOM      2  C   UNL     1     -15.153  -0.973  -2.893  1.00  0.00    +0.202 C 
ATOM      3  C   UNL     1     -15.071  -1.370  -4.357  1.00  0.00    +0.179 C 
ATOM      4  C   UNL     1     -13.618  -1.262  -4.830  1.00  0.00    +0.177 C 
ATOM      5  C   UNL     1     -12.868  -0.063  -4.202  1.00  0.00    +0.180 C 
ATOM      6  O   UNL     1     -13.767   0.943  -3.698  1.00  0.00    -0.341 OA
ENDROOT
BRANCH   1   7
ATOM      7  O   UNL     1     -14.421   0.770  -1.412  1.00  0.00    -0.341 OA
BRANCH   7   8
ATOM      8  C   UNL     1     -15.476   1.379  -0.676  1.00  0.00    +0.184 C 
ATOM      9  C   UNL     1     -16.333   3.025   0.756  1.00  0.00    +0.195 C 
ATOM     10  C   UNL     1     -15.219   2.823  -0.273  1.00  0.00    +0.179 C 
ATOM     11  O   UNL     1     -16.517   1.737   1.399  1.00  0.00    -0.370 OA
ATOM     12  O   UNL     1     -13.899   2.962   0.282  1.00  0.00    -0.342 OA
ATOM     13  C   UNL     1     -15.624   0.809   0.730  1.00  0.00    +0.184 C 
ATOM     14  C   UNL     1     -13.618   2.188   1.444  1.00  0.00    +0.279 C 
ATOM     15  C   UNL     1     -14.262   0.784   1.436  1.00  0.00    +0.202 C 
BRANCH  14  16
ATOM     16  O   UNL     1     -14.038   2.920   2.593  1.00  0.00    -0.366 OA
ATOM     17  H   UNL     1     -13.383   3.636   2.679  1.00  0.00    +0.213 HD
ENDBRANCH  14  16
BRANCH  15  18
ATOM     18  O   UNL     1     -14.403   0.281   2.771  1.00  0.00    -0.385 OA
ATOM     19  H   UNL     1     -13.802  -0.495   2.797  1.00  0.00    +0.211 HD
ENDBRANCH  15  18
ENDBRANCH   7   8
ENDBRANCH   1   7
BRANCH   2  20
ATOM     20  O   UNL     1     -16.488  -1.209  -2.414  1.00  0.00    -0.385 OA
ATOM     21  H   UNL     1     -17.088  -0.885  -3.115  1.00  0.00    +0.211 HD
ENDBRANCH   2  20
BRANCH   3  22
ATOM     22  O   UNL     1     -15.527  -2.722  -4.537  1.00  0.00    -0.387 OA
ATOM     23  H   UNL     1     -15.971  -2.950  -3.693  1.00  0.00    +0.211 HD
ENDBRANCH   3  22
BRANCH   5  24
ATOM     24  C   UNL     1     -11.790  -0.438  -3.169  1.00  0.00    +0.220 C 
BRANCH  24  25
ATOM     25  O   UNL     1     -10.801   0.589  -3.154  1.00  0.00    -0.245 OA
BRANCH  25  26
ATOM     26  S   UNL     1     -10.607   1.433  -1.781  1.00  0.00    +0.397 S 
ATOM     27  O   UNL     1      -9.441   2.282  -1.884  1.00  0.00    -0.169 OA
ATOM     28  O   UNL     1     -10.811   0.538  -0.665  1.00  0.00    -0.169 OA
BRANCH  26  29
ATOM     29  O   UNL     1     -11.906   2.384  -1.787  1.00  0.00    -0.264 OA
ATOM     30  H   UNL     1     -11.776   3.049  -1.080  1.00  0.00    +0.236 HD
ENDBRANCH  26  29
ENDBRANCH  25  26
ENDBRANCH  24  25
ENDBRANCH   5  24
BRANCH   4  31
ATOM     31  O   UNL     1     -12.945  -2.498  -4.566  1.00  0.00    -0.387 OA
ATOM     32  H   UNL     1     -12.028  -2.238  -4.325  1.00  0.00    +0.211 HD
ENDBRANCH   4  31
TORSDOF 11
ENDMDL
MODEL 8
REMARK VINA RESULT:    -6.001     10.992     13.495
REMARK INTER + INTRA:         -10.003
REMARK INTER:                  -8.894
REMARK INTRA:                  -1.108
REMARK UNBOUND:                -1.196
REMARK SMILES O=S(=O)(O)OC[C@@H]1O[C@H](O[C@H]2[C@@H]3OC[C@H]2O[C@@H](O)[C@H]3O)[C@@H](O)[C@H](O)[C@@H]1O
REMARK SMILES IDX 9 1 21 2 23 3 25 4 7 5 8 6 10 7 11 8 14 9 15 10 13 11 16 12
REMARK SMILES IDX 12 13 17 14 19 15 18 16 20 18 22 20 24 22 6 24 5 25 2 26
REMARK SMILES IDX 1 27 3 28 4 29 26 31
REMARK H PARENT 18 17 20 19 22 21 24 23 4 30 26 32
ROOT
ATOM      1  C   UNL     1     -13.231   0.829  -1.576  1.00  0.00    +0.282 C 
ATOM      2  C   UNL     1     -11.732   0.908  -1.227  1.00  0.00    +0.202 C 
ATOM      3  C   UNL     1     -10.947   0.265  -2.357  1.00  0.00    +0.179 C 
ATOM      4  C   UNL     1     -11.137   1.086  -3.636  1.00  0.00    +0.177 C 
ATOM      5  C   UNL     1     -12.566   1.662  -3.775  1.00  0.00    +0.180 C 
ATOM      6  O   UNL     1     -13.524   0.953  -2.967  1.00  0.00    -0.341 OA
ENDROOT
BRANCH   1   7
ATOM      7  O   UNL     1     -13.920   1.788  -0.769  1.00  0.00    -0.341 OA
BRANCH   7   8
ATOM      8  C   UNL     1     -15.092   1.259  -0.158  1.00  0.00    +0.184 C 
ATOM      9  C   UNL     1     -16.936   1.410   1.282  1.00  0.00    +0.195 C 
ATOM     10  C   UNL     1     -16.024   2.303   0.439  1.00  0.00    +0.179 C 
ATOM     11  O   UNL     1     -16.103   0.313   1.739  1.00  0.00    -0.370 OA
ATOM     12  O   UNL     1     -15.278   3.254   1.219  1.00  0.00    -0.342 OA
ATOM     13  C   UNL     1     -14.799   0.502   1.132  1.00  0.00    +0.184 C 
ATOM     14  C   UNL     1     -14.543   2.729   2.319  1.00  0.00    +0.279 C 
ATOM     15  C   UNL     1     -13.905   1.348   2.050  1.00  0.00    +0.202 C 
BRANCH  14  16
ATOM     16  O   UNL     1     -15.402   2.666   3.455  1.00  0.00    -0.366 OA
ATOM     17  H   UNL     1     -16.299   2.760   3.088  1.00  0.00    +0.213 HD
ENDBRANCH  14  16
BRANCH  15  18
ATOM     18  O   UNL     1     -13.656   0.653   3.279  1.00  0.00    -0.385 OA
ATOM     19  H   UNL     1     -14.366  -0.023   3.317  1.00  0.00    +0.211 HD
ENDBRANCH  15  18
ENDBRANCH   7   8
ENDBRANCH   1   7
BRANCH   2  20
ATOM     20  O   UNL     1     -11.442   0.219   0.002  1.00  0.00    -0.385 OA
ATOM     21  H   UNL     1     -11.816   0.771   0.716  1.00  0.00    +0.211 HD
ENDBRANCH   2  20
BRANCH   3  22
ATOM     22  O   UNL     1      -9.548   0.215  -2.030  1.00  0.00    -0.387 OA
ATOM     23  H   UNL     1      -9.176   1.046  -2.394  1.00  0.00    +0.211 HD
ENDBRANCH   3  22
BRANCH   5  24
ATOM     24  C   UNL     1     -12.677   3.186  -3.591  1.00  0.00    +0.220 C 
BRANCH  24  25
ATOM     25  O   UNL     1     -13.325   3.735  -4.736  1.00  0.00    -0.245 OA
BRANCH  25  26
ATOM     26  S   UNL     1     -12.415   4.052  -6.042  1.00  0.00    +0.397 S 
ATOM     27  O   UNL     1     -12.900   3.299  -7.177  1.00  0.00    -0.169 OA
ATOM     28  O   UNL     1     -11.026   4.034  -5.643  1.00  0.00    -0.169 OA
BRANCH  26  29
ATOM     29  O   UNL     1     -12.744   5.605  -6.309  1.00  0.00    -0.264 OA
ATOM     30  H   UNL     1     -13.537   5.634  -6.882  1.00  0.00    +0.236 HD
ENDBRANCH  26  29
ENDBRANCH  25  26
ENDBRANCH  24  25
ENDBRANCH   5  24
BRANCH   4  31
ATOM     31  O   UNL     1     -10.149   2.122  -3.679  1.00  0.00    -0.387 OA
ATOM     32  H   UNL     1     -10.402   2.741  -2.958  1.00  0.00    +0.211 HD
ENDBRANCH   4  31
TORSDOF 11
ENDMDL
MODEL 9
REMARK VINA RESULT:    -5.317      7.451     11.267
REMARK INTER + INTRA:          -9.000
REMARK INTER:                  -7.736
REMARK INTRA:                  -1.264
REMARK UNBOUND:                -1.196
REMARK SMILES O=S(=O)(O)OC[C@@H]1O[C@H](O[C@H]2[C@@H]3OC[C@H]2O[C@@H](O)[C@H]3O)[C@@H](O)[C@H](O)[C@@H]1O
REMARK SMILES IDX 9 1 21 2 23 3 25 4 7 5 8 6 10 7 11 8 14 9 15 10 13 11 16 12
REMARK SMILES IDX 12 13 17 14 19 15 18 16 20 18 22 20 24 22 6 24 5 25 2 26
REMARK SMILES IDX 1 27 3 28 4 29 26 31
REMARK H PARENT 18 17 20 19 22 21 24 23 4 30 26 32
ROOT
ATOM      1  C   UNL     1      -1.681   3.408 -17.227  1.00  0.00    +0.282 C 
ATOM      2  C   UNL     1      -2.003   3.434 -15.721  1.00  0.00    +0.202 C 
ATOM      3  C   UNL     1      -2.612   4.785 -15.389  1.00  0.00    +0.179 C 
ATOM      4  C   UNL     1      -3.950   4.931 -16.119  1.00  0.00    +0.177 C 
ATOM      5  C   UNL     1      -3.938   4.295 -17.530  1.00  0.00    +0.180 C 
ATOM      6  O   UNL     1      -2.603   4.127 -18.045  1.00  0.00    -0.341 OA
ENDROOT
BRANCH   1   7
ATOM      7  O   UNL     1      -1.530   2.041 -17.620  1.00  0.00    -0.341 OA
BRANCH   7   8
ATOM      8  C   UNL     1      -0.960   1.895 -18.916  1.00  0.00    +0.184 C 
ATOM      9  C   UNL     1      -0.856   0.918 -21.044  1.00  0.00    +0.195 C 
ATOM     10  C   UNL     1      -1.866   1.223 -19.937  1.00  0.00    +0.179 C 
ATOM     11  O   UNL     1       0.401   0.652 -20.371  1.00  0.00    -0.370 OA
ATOM     12  O   UNL     1      -2.469   0.044 -19.374  1.00  0.00    -0.342 OA
ATOM     13  C   UNL     1       0.168   0.871 -18.956  1.00  0.00    +0.184 C 
ATOM     14  C   UNL     1      -1.574  -0.972 -18.934  1.00  0.00    +0.279 C 
ATOM     15  C   UNL     1      -0.279  -0.435 -18.285  1.00  0.00    +0.202 C 
BRANCH  14  16
ATOM     16  O   UNL     1      -1.263  -1.817 -20.039  1.00  0.00    -0.366 OA
ATOM     17  H   UNL     1      -1.585  -1.329 -20.818  1.00  0.00    +0.213 HD
ENDBRANCH  14  16
BRANCH  15  18
ATOM     18  O   UNL     1       0.768  -1.413 -18.352  1.00  0.00    -0.385 OA
ATOM     19  H   UNL     1       0.324  -2.211 -18.710  1.00  0.00    +0.211 HD
ENDBRANCH  15  18
ENDBRANCH   7   8
ENDBRANCH   1   7
BRANCH   2  20
ATOM     20  O   UNL     1      -0.819   3.242 -14.927  1.00  0.00    -0.385 OA
ATOM     21  H   UNL     1      -0.286   2.569 -15.395  1.00  0.00    +0.211 HD
ENDBRANCH   2  20
BRANCH   3  22
ATOM     22  O   UNL     1      -2.831   4.903 -13.973  1.00  0.00    -0.387 OA
ATOM     23  H   UNL     1      -3.644   4.382 -13.801  1.00  0.00    +0.211 HD
ENDBRANCH   3  22
BRANCH   5  24
ATOM     24  C   UNL     1      -4.773   3.010 -17.674  1.00  0.00    +0.220 C 
BRANCH  24  25
ATOM     25  O   UNL     1      -6.076   3.366 -18.132  1.00  0.00    -0.245 OA
BRANCH  25  26
ATOM     26  S   UNL     1      -7.351   2.736 -17.350  1.00  0.00    +0.397 S 
ATOM     27  O   UNL     1      -8.436   2.508 -18.278  1.00  0.00    -0.169 OA
ATOM     28  O   UNL     1      -7.534   3.467 -16.117  1.00  0.00    -0.169 OA
BRANCH  26  29
ATOM     29  O   UNL     1      -6.787   1.299 -16.895  1.00  0.00    -0.264 OA
ATOM     30  H   UNL     1      -6.854   1.262 -15.919  1.00  0.00    +0.236 HD
ENDBRANCH  26  29
ENDBRANCH  25  26
ENDBRANCH  24  25
ENDBRANCH   5  24
BRANCH   4  31
ATOM     31  O   UNL     1      -4.991   4.379 -15.306  1.00  0.00    -0.387 OA
ATOM     32  H   UNL     1      -5.817   4.796 -15.639  1.00  0.00    +0.211 HD
ENDBRANCH   4  31
TORSDOF 11
ENDMDL
