MODEL 1
REMARK VINA RESULT:    -7.490      0.000      0.000
REMARK INTER + INTRA:         -11.884
REMARK INTER:                 -10.993
REMARK INTRA:                  -0.891
REMARK UNBOUND:                -0.891
REMARK SMILES O=S(=O)(O)OC[C@@H]1O[C@H](O[C@H]2[C@@H]3OC[C@H]2O[C@@H](O)[C@H]3O)[C@@H](O)[C@H](O)[C@@H]1O
REMARK SMILES IDX 9 1 21 2 23 3 25 4 7 5 8 6 10 7 11 8 14 9 15 10 13 11 16 12
REMARK SMILES IDX 12 13 17 14 19 15 18 16 20 18 22 20 24 22 6 24 5 25 2 26
REMARK SMILES IDX 1 27 3 28 4 29 26 31
REMARK H PARENT 18 17 20 19 22 21 24 23 4 30 26 32
ROOT
ATOM      1  C   UNL     1      11.872   2.999  -5.228  1.00  0.00    +0.282 C 
ATOM      2  C   UNL     1      10.341   2.845  -5.142  1.00  0.00    +0.202 C 
ATOM      3  C   UNL     1       9.747   3.275  -6.473  1.00  0.00    +0.179 C 
ATOM      4  C   UNL     1      10.217   2.316  -7.570  1.00  0.00    +0.177 C 
ATOM      5  C   UNL     1      11.677   1.843  -7.372  1.00  0.00    +0.180 C 
ATOM      6  O   UNL     1      12.427   2.723  -6.513  1.00  0.00    -0.341 OA
ENDROOT
BRANCH   1   7
ATOM      7  O   UNL     1      12.450   2.208  -4.185  1.00  0.00    -0.341 OA
BRANCH   7   8
ATOM      8  C   UNL     1      12.528   2.899  -2.943  1.00  0.00    +0.184 C 
ATOM      9  C   UNL     1      13.606   4.308  -1.411  1.00  0.00    +0.195 C 
ATOM     10  C   UNL     1      13.524   4.048  -2.915  1.00  0.00    +0.179 C 
ATOM     11  O   UNL     1      13.426   3.016  -0.775  1.00  0.00    -0.370 OA
ATOM     12  O   UNL     1      14.778   3.641  -3.493  1.00  0.00    -0.342 OA
ATOM     13  C   UNL     1      13.168   2.064  -1.840  1.00  0.00    +0.184 C 
ATOM     14  C   UNL     1      15.439   2.551  -2.858  1.00  0.00    +0.279 C 
ATOM     15  C   UNL     1      14.487   1.453  -2.335  1.00  0.00    +0.202 C 
BRANCH  14  16
ATOM     16  O   UNL     1      16.242   3.060  -1.796  1.00  0.00    -0.366 OA
ATOM     17  H   UNL     1      16.445   2.280  -1.248  1.00  0.00    +0.213 HD
ENDBRANCH  14  16
BRANCH  15  18
ATOM     18  O   UNL     1      15.108   0.696  -1.288  1.00  0.00    -0.385 OA
ATOM     19  H   UNL     1      15.687   1.347  -0.837  1.00  0.00    +0.211 HD
ENDBRANCH  15  18
ENDBRANCH   7   8
ENDBRANCH   1   7
BRANCH   2  20
ATOM     20  O   UNL     1       9.790   3.660  -4.093  1.00  0.00    -0.385 OA
ATOM     21  H   UNL     1       9.019   3.169  -3.747  1.00  0.00    +0.211 HD
ENDBRANCH   2  20
BRANCH   3  22
ATOM     22  O   UNL     1       8.311   3.255  -6.410  1.00  0.00    -0.387 OA
ATOM     23  H   UNL     1       8.104   2.929  -5.509  1.00  0.00    +0.211 HD
ENDBRANCH   3  22
BRANCH   5  24
ATOM     24  C   UNL     1      11.835   0.368  -6.960  1.00  0.00    +0.220 C 
BRANCH  24  25
ATOM     25  O   UNL     1      13.219   0.028  -7.016  1.00  0.00    -0.245 OA
BRANCH  25  26
ATOM     26  S   UNL     1      13.859  -0.752  -5.745  1.00  0.00    +0.397 S 
ATOM     27  O   UNL     1      12.814  -1.130  -4.820  1.00  0.00    -0.169 OA
ATOM     28  O   UNL     1      15.040  -0.035  -5.321  1.00  0.00    -0.169 OA
BRANCH  26  29
ATOM     29  O   UNL     1      14.419  -2.098  -6.427  1.00  0.00    -0.264 OA
ATOM     30  H   UNL     1      15.394  -2.021  -6.451  1.00  0.00    +0.236 HD
ENDBRANCH  26  29
ENDBRANCH  25  26
ENDBRANCH  24  25
ENDBRANCH   5  24
BRANCH   4  31
ATOM     31  O   UNL     1       9.313   1.208  -7.644  1.00  0.00    -0.387 OA
ATOM     32  H   UNL     1       9.860   0.423  -7.415  1.00  0.00    +0.211 HD
ENDBRANCH   4  31
TORSDOF 11
ENDMDL
MODEL 2
REMARK VINA RESULT:    -7.485      2.574      6.833
REMARK INTER + INTRA:         -11.877
REMARK INTER:                 -10.788
REMARK INTRA:                  -1.088
REMARK UNBOUND:                -0.891
REMARK SMILES O=S(=O)(O)OC[C@@H]1O[C@H](O[C@H]2[C@@H]3OC[C@H]2O[C@@H](O)[C@H]3O)[C@@H](O)[C@H](O)[C@@H]1O
REMARK SMILES IDX 9 1 21 2 23 3 25 4 7 5 8 6 10 7 11 8 14 9 15 10 13 11 16 12
REMARK SMILES IDX 12 13 17 14 19 15 18 16 20 18 22 20 24 22 6 24 5 25 2 26
REMARK SMILES IDX 1 27 3 28 4 29 26 31
REMARK H PARENT 18 17 20 19 22 21 24 23 4 30 26 32
ROOT
ATOM      1  C   UNL     1      10.659   2.953  -7.002  1.00  0.00    +0.282 C 
ATOM      2  C   UNL     1      10.051   1.600  -6.585  1.00  0.00    +0.202 C 
ATOM      3  C   UNL     1      11.173   0.579  -6.508  1.00  0.00    +0.179 C 
ATOM      4  C   UNL     1      12.146   0.978  -5.395  1.00  0.00    +0.177 C 
ATOM      5  C   UNL     1      12.342   2.509  -5.287  1.00  0.00    +0.180 C 
ATOM      6  O   UNL     1      11.971   3.196  -6.498  1.00  0.00    -0.341 OA
ENDROOT
BRANCH   1   7
ATOM      7  O   UNL     1       9.724   3.978  -6.657  1.00  0.00    -0.341 OA
BRANCH   7   8
ATOM      8  C   UNL     1       9.417   4.840  -7.748  1.00  0.00    +0.184 C 
ATOM      9  C   UNL     1       8.316   6.677  -8.701  1.00  0.00    +0.195 C 
ATOM     10  C   UNL     1       8.840   6.190  -7.349  1.00  0.00    +0.179 C 
ATOM     11  O   UNL     1       7.893   5.486  -9.414  1.00  0.00    -0.370 OA
ATOM     12  O   UNL     1       7.805   6.023  -6.363  1.00  0.00    -0.342 OA
ATOM     13  C   UNL     1       8.226   4.356  -8.567  1.00  0.00    +0.184 C 
ATOM     14  C   UNL     1       6.686   5.233  -6.752  1.00  0.00    +0.279 C 
ATOM     15  C   UNL     1       7.047   4.023  -7.642  1.00  0.00    +0.202 C 
BRANCH  14  16
ATOM     16  O   UNL     1       5.742   6.071  -7.413  1.00  0.00    -0.366 OA
ATOM     17  H   UNL     1       6.152   6.955  -7.404  1.00  0.00    +0.213 HD
ENDBRANCH  14  16
BRANCH  15  18
ATOM     18  O   UNL     1       5.914   3.600  -8.412  1.00  0.00    -0.385 OA
ATOM     19  H   UNL     1       5.399   3.043  -7.790  1.00  0.00    +0.211 HD
ENDBRANCH  15  18
ENDBRANCH   7   8
ENDBRANCH   1   7
BRANCH   2  20
ATOM     20  O   UNL     1       9.068   1.151  -7.533  1.00  0.00    -0.385 OA
ATOM     21  H   UNL     1       8.352   0.742  -7.008  1.00  0.00    +0.211 HD
ENDBRANCH   2  20
BRANCH   3  22
ATOM     22  O   UNL     1      10.644  -0.728  -6.228  1.00  0.00    -0.387 OA
ATOM     23  H   UNL     1      11.409  -1.334  -6.325  1.00  0.00    +0.211 HD
ENDBRANCH   3  22
BRANCH   5  24
ATOM     24  C   UNL     1      11.714   3.162  -4.042  1.00  0.00    +0.220 C 
BRANCH  24  25
ATOM     25  O   UNL     1      12.483   2.790  -2.900  1.00  0.00    -0.245 OA
BRANCH  25  26
ATOM     26  S   UNL     1      13.677   3.787  -2.434  1.00  0.00    +0.397 S 
ATOM     27  O   UNL     1      14.929   3.368  -3.022  1.00  0.00    -0.169 OA
ATOM     28  O   UNL     1      13.535   4.032  -1.017  1.00  0.00    -0.169 OA
BRANCH  26  29
ATOM     29  O   UNL     1      13.247   5.172  -3.134  1.00  0.00    -0.264 OA
ATOM     30  H   UNL     1      12.271   5.170  -3.195  1.00  0.00    +0.236 HD
ENDBRANCH  26  29
ENDBRANCH  25  26
ENDBRANCH  24  25
ENDBRANCH   5  24
BRANCH   4  31
ATOM     31  O   UNL     1      11.695   0.420  -4.156  1.00  0.00    -0.387 OA
ATOM     32  H   UNL     1      12.420  -0.182  -3.873  1.00  0.00    +0.211 HD
ENDBRANCH   4  31
TORSDOF 11
ENDMDL
MODEL 3
REMARK VINA RESULT:    -7.463      3.185      5.394
REMARK INTER + INTRA:         -11.844
REMARK INTER:                 -10.152
REMARK INTRA:                  -1.691
REMARK UNBOUND:                -0.891
REMARK SMILES O=S(=O)(O)OC[C@@H]1O[C@H](O[C@H]2[C@@H]3OC[C@H]2O[C@@H](O)[C@H]3O)[C@@H](O)[C@H](O)[C@@H]1O
REMARK SMILES IDX 9 1 21 2 23 3 25 4 7 5 8 6 10 7 11 8 14 9 15 10 13 11 16 12
REMARK SMILES IDX 12 13 17 14 19 15 18 16 20 18 22 20 24 22 6 24 5 25 2 26
REMARK SMILES IDX 1 27 3 28 4 29 26 31
REMARK H PARENT 18 17 20 19 22 21 24 23 4 30 26 32
ROOT
ATOM      1  C   UNL     1       8.673   4.847  -6.973  1.00  0.00    +0.282 C 
ATOM      2  C   UNL     1       7.233   4.348  -7.200  1.00  0.00    +0.202 C 
ATOM      3  C   UNL     1       6.385   5.530  -7.636  1.00  0.00    +0.179 C 
ATOM      4  C   UNL     1       6.885   6.039  -8.991  1.00  0.00    +0.177 C 
ATOM      5  C   UNL     1       8.424   5.962  -9.133  1.00  0.00    +0.180 C 
ATOM      6  O   UNL     1       9.089   5.886  -7.857  1.00  0.00    -0.341 OA
ENDROOT
BRANCH   1   7
ATOM      7  O   UNL     1       9.539   3.710  -6.996  1.00  0.00    -0.341 OA
BRANCH   7   8
ATOM      8  C   UNL     1      10.483   3.709  -5.929  1.00  0.00    +0.184 C 
ATOM      9  C   UNL     1      12.246   2.757  -4.713  1.00  0.00    +0.195 C 
ATOM     10  C   UNL     1      11.667   2.775  -6.128  1.00  0.00    +0.179 C 
ATOM     11  O   UNL     1      11.111   2.891  -3.819  1.00  0.00    -0.370 OA
ATOM     12  O   UNL     1      11.218   1.483  -6.577  1.00  0.00    -0.342 OA
ATOM     13  C   UNL     1       9.941   3.064  -4.659  1.00  0.00    +0.184 C 
ATOM     14  C   UNL     1      10.329   0.788  -5.709  1.00  0.00    +0.279 C 
ATOM     15  C   UNL     1       9.315   1.700  -4.982  1.00  0.00    +0.202 C 
BRANCH  14  16
ATOM     16  O   UNL     1      11.098   0.049  -4.764  1.00  0.00    -0.366 OA
ATOM     17  H   UNL     1      10.441  -0.303  -4.137  1.00  0.00    +0.213 HD
ENDBRANCH  14  16
BRANCH  15  18
ATOM     18  O   UNL     1       8.835   1.076  -3.784  1.00  0.00    -0.385 OA
ATOM     19  H   UNL     1       7.942   0.752  -4.028  1.00  0.00    +0.211 HD
ENDBRANCH  15  18
ENDBRANCH   7   8
ENDBRANCH   1   7
BRANCH   2  20
ATOM     20  O   UNL     1       6.677   3.785  -5.999  1.00  0.00    -0.385 OA
ATOM     21  H   UNL     1       7.291   4.026  -5.278  1.00  0.00    +0.211 HD
ENDBRANCH   2  20
BRANCH   3  22
ATOM     22  O   UNL     1       5.006   5.141  -7.757  1.00  0.00    -0.387 OA
ATOM     23  H   UNL     1       5.016   4.366  -8.357  1.00  0.00    +0.211 HD
ENDBRANCH   3  22
BRANCH   5  24
ATOM     24  C   UNL     1       8.937   4.890 -10.111  1.00  0.00    +0.220 C 
BRANCH  24  25
ATOM     25  O   UNL     1      10.360   4.855 -10.040  1.00  0.00    -0.245 OA
BRANCH  25  26
ATOM     26  S   UNL     1      11.090   3.410 -10.161  1.00  0.00    +0.397 S 
ATOM     27  O   UNL     1      12.350   3.433  -9.454  1.00  0.00    -0.169 OA
ATOM     28  O   UNL     1      10.982   2.961 -11.530  1.00  0.00    -0.169 OA
BRANCH  26  29
ATOM     29  O   UNL     1      10.085   2.459  -9.337  1.00  0.00    -0.264 OA
ATOM     30  H   UNL     1       9.206   2.540  -9.760  1.00  0.00    +0.236 HD
ENDBRANCH  26  29
ENDBRANCH  25  26
ENDBRANCH  24  25
ENDBRANCH   5  24
BRANCH   4  31
ATOM     31  O   UNL     1       6.226   5.315 -10.037  1.00  0.00    -0.387 OA
ATOM     32  H   UNL     1       5.287   5.260  -9.751  1.00  0.00    +0.211 HD
ENDBRANCH   4  31
TORSDOF 11
ENDMDL
MODEL 4
REMARK VINA RESULT:    -7.157      3.170      5.125
REMARK INTER + INTRA:         -11.395
REMARK INTER:                 -10.418
REMARK INTRA:                  -0.977
REMARK UNBOUND:                -0.891
REMARK SMILES O=S(=O)(O)OC[C@@H]1O[C@H](O[C@H]2[C@@H]3OC[C@H]2O[C@@H](O)[C@H]3O)[C@@H](O)[C@H](O)[C@@H]1O
REMARK SMILES IDX 9 1 21 2 23 3 25 4 7 5 8 6 10 7 11 8 14 9 15 10 13 11 16 12
REMARK SMILES IDX 12 13 17 14 19 15 18 16 20 18 22 20 24 22 6 24 5 25 2 26
REMARK SMILES IDX 1 27 3 28 4 29 26 31
REMARK H PARENT 18 17 20 19 22 21 24 23 4 30 26 32
ROOT
ATOM      1  C   UNL     1       9.713   3.849  -5.578  1.00  0.00    +0.282 C 
ATOM      2  C   UNL     1       8.363   3.120  -5.719  1.00  0.00    +0.202 C 
ATOM      3  C   UNL     1       7.293   4.157  -6.015  1.00  0.00    +0.179 C 
ATOM      4  C   UNL     1       7.578   4.805  -7.373  1.00  0.00    +0.177 C 
ATOM      5  C   UNL     1       9.090   5.001  -7.641  1.00  0.00    +0.180 C 
ATOM      6  O   UNL     1       9.868   4.983  -6.429  1.00  0.00    -0.341 OA
ENDROOT
BRANCH   1   7
ATOM      7  O   UNL     1      10.752   2.880  -5.738  1.00  0.00    -0.341 OA
BRANCH   7   8
ATOM      8  C   UNL     1      11.271   2.412  -4.497  1.00  0.00    +0.184 C 
ATOM      9  C   UNL     1      13.002   1.603  -3.139  1.00  0.00    +0.195 C 
ATOM     10  C   UNL     1      12.786   2.474  -4.378  1.00  0.00    +0.179 C 
ATOM     11  O   UNL     1      11.959   0.595  -3.177  1.00  0.00    -0.370 OA
ATOM     12  O   UNL     1      13.406   1.943  -5.563  1.00  0.00    -0.342 OA
ATOM     13  C   UNL     1      11.126   0.905  -4.324  1.00  0.00    +0.184 C 
ATOM     14  C   UNL     1      13.106   0.587  -5.878  1.00  0.00    +0.279 C 
ATOM     15  C   UNL     1      11.648   0.176  -5.570  1.00  0.00    +0.202 C 
BRANCH  14  16
ATOM     16  O   UNL     1      14.017  -0.257  -5.179  1.00  0.00    -0.366 OA
ATOM     17  H   UNL     1      14.229  -0.965  -5.814  1.00  0.00    +0.213 HD
ENDBRANCH  14  16
BRANCH  15  18
ATOM     18  O   UNL     1      11.545  -1.243  -5.396  1.00  0.00    -0.385 OA
ATOM     19  H   UNL     1      11.435  -1.586  -6.309  1.00  0.00    +0.211 HD
ENDBRANCH  15  18
ENDBRANCH   7   8
ENDBRANCH   1   7
BRANCH   2  20
ATOM     20  O   UNL     1       8.017   2.417  -4.513  1.00  0.00    -0.385 OA
ATOM     21  H   UNL     1       8.098   3.067  -3.788  1.00  0.00    +0.211 HD
ENDBRANCH   2  20
BRANCH   3  22
ATOM     22  O   UNL     1       5.994   3.542  -6.048  1.00  0.00    -0.387 OA
ATOM     23  H   UNL     1       5.463   4.042  -5.392  1.00  0.00    +0.211 HD
ENDBRANCH   3  22
BRANCH   5  24
ATOM     24  C   UNL     1       9.686   4.078  -8.719  1.00  0.00    +0.220 C 
BRANCH  24  25
ATOM     25  O   UNL     1      10.189   4.887  -9.780  1.00  0.00    -0.245 OA
BRANCH  25  26
ATOM     26  S   UNL     1       9.368   4.899 -11.180  1.00  0.00    +0.397 S 
ATOM     27  O   UNL     1      10.131   5.589 -12.194  1.00  0.00    -0.169 OA
ATOM     28  O   UNL     1       7.990   5.230 -10.894  1.00  0.00    -0.169 OA
BRANCH  26  29
ATOM     29  O   UNL     1       9.343   3.336 -11.565  1.00  0.00    -0.264 OA
ATOM     30  H   UNL     1      10.147   3.160 -12.094  1.00  0.00    +0.236 HD
ENDBRANCH  26  29
ENDBRANCH  25  26
ENDBRANCH  24  25
ENDBRANCH   5  24
BRANCH   4  31
ATOM     31  O   UNL     1       6.960   4.027  -8.403  1.00  0.00    -0.387 OA
ATOM     32  H   UNL     1       6.001   4.040  -8.187  1.00  0.00    +0.211 HD
ENDBRANCH   4  31
TORSDOF 11
ENDMDL
MODEL 5
REMARK VINA RESULT:    -7.134      2.191      4.268
REMARK INTER + INTRA:         -11.361
REMARK INTER:                 -10.301
REMARK INTRA:                  -1.060
REMARK UNBOUND:                -0.891
REMARK SMILES O=S(=O)(O)OC[C@@H]1O[C@H](O[C@H]2[C@@H]3OC[C@H]2O[C@@H](O)[C@H]3O)[C@@H](O)[C@H](O)[C@@H]1O
REMARK SMILES IDX 9 1 21 2 23 3 25 4 7 5 8 6 10 7 11 8 14 9 15 10 13 11 16 12
REMARK SMILES IDX 12 13 17 14 19 15 18 16 20 18 22 20 24 22 6 24 5 25 2 26
REMARK SMILES IDX 1 27 3 28 4 29 26 31
REMARK H PARENT 18 17 20 19 22 21 24 23 4 30 26 32
ROOT
ATOM      1  C   UNL     1      11.733   1.430  -3.718  1.00  0.00    +0.282 C 
ATOM      2  C   UNL     1      12.275   0.548  -4.860  1.00  0.00    +0.202 C 
ATOM      3  C   UNL     1      11.152  -0.359  -5.332  1.00  0.00    +0.179 C 
ATOM      4  C   UNL     1      10.033   0.494  -5.938  1.00  0.00    +0.177 C 
ATOM      5  C   UNL     1       9.826   1.834  -5.192  1.00  0.00    +0.180 C 
ATOM      6  O   UNL     1      10.364   1.806  -3.856  1.00  0.00    -0.341 OA
ENDROOT
BRANCH   1   7
ATOM      7  O   UNL     1      12.612   2.550  -3.575  1.00  0.00    -0.341 OA
BRANCH   7   8
ATOM      8  C   UNL     1      13.129   2.684  -2.256  1.00  0.00    +0.184 C 
ATOM      9  C   UNL     1      14.345   3.819  -0.604  1.00  0.00    +0.195 C 
ATOM     10  C   UNL     1      13.542   4.098  -1.875  1.00  0.00    +0.179 C 
ATOM     11  O   UNL     1      14.970   2.525  -0.806  1.00  0.00    -0.370 OA
ATOM     12  O   UNL     1      14.326   4.692  -2.926  1.00  0.00    -0.342 OA
ATOM     13  C   UNL     1      14.496   2.032  -2.086  1.00  0.00    +0.184 C 
ATOM     14  C   UNL     1      15.535   4.022  -3.265  1.00  0.00    +0.279 C 
ATOM     15  C   UNL     1      15.440   2.481  -3.209  1.00  0.00    +0.202 C 
BRANCH  14  16
ATOM     16  O   UNL     1      16.573   4.487  -2.406  1.00  0.00    -0.366 OA
ATOM     17  H   UNL     1      16.165   4.510  -1.522  1.00  0.00    +0.213 HD
ENDBRANCH  14  16
BRANCH  15  18
ATOM     18  O   UNL     1      16.737   1.896  -3.033  1.00  0.00    -0.385 OA
ATOM     19  H   UNL     1      16.926   1.473  -3.898  1.00  0.00    +0.211 HD
ENDBRANCH  15  18
ENDBRANCH   7   8
ENDBRANCH   1   7
BRANCH   2  20
ATOM     20  O   UNL     1      13.380  -0.259  -4.420  1.00  0.00    -0.385 OA
ATOM     21  H   UNL     1      14.016   0.356  -4.004  1.00  0.00    +0.211 HD
ENDBRANCH   2  20
BRANCH   3  22
ATOM     22  O   UNL     1      11.635  -1.280  -6.325  1.00  0.00    -0.387 OA
ATOM     23  H   UNL     1      11.898  -0.716  -7.083  1.00  0.00    +0.211 HD
ENDBRANCH   3  22
BRANCH   5  24
ATOM     24  C   UNL     1      10.274   3.088  -5.965  1.00  0.00    +0.220 C 
BRANCH  24  25
ATOM     25  O   UNL     1       9.291   3.385  -6.954  1.00  0.00    -0.245 OA
BRANCH  25  26
ATOM     26  S   UNL     1       8.475   4.781  -6.815  1.00  0.00    +0.397 S 
ATOM     27  O   UNL     1       7.620   4.970  -7.964  1.00  0.00    -0.169 OA
ATOM     28  O   UNL     1       9.395   5.801  -6.362  1.00  0.00    -0.169 OA
BRANCH  26  29
ATOM     29  O   UNL     1       7.530   4.490  -5.545  1.00  0.00    -0.264 OA
ATOM     30  H   UNL     1       7.851   3.662  -5.134  1.00  0.00    +0.236 HD
ENDBRANCH  26  29
ENDBRANCH  25  26
ENDBRANCH  24  25
ENDBRANCH   5  24
BRANCH   4  31
ATOM     31  O   UNL     1      10.306   0.706  -7.328  1.00  0.00    -0.387 OA
ATOM     32  H   UNL     1      10.996   0.043  -7.553  1.00  0.00    +0.211 HD
ENDBRANCH   4  31
TORSDOF 11
ENDMDL
MODEL 6
REMARK VINA RESULT:    -7.080      3.178      5.378
REMARK INTER + INTRA:         -11.283
REMARK INTER:                 -10.045
REMARK INTRA:                  -1.238
REMARK UNBOUND:                -0.891
REMARK SMILES O=S(=O)(O)OC[C@@H]1O[C@H](O[C@H]2[C@@H]3OC[C@H]2O[C@@H](O)[C@H]3O)[C@@H](O)[C@H](O)[C@@H]1O
REMARK SMILES IDX 9 1 21 2 23 3 25 4 7 5 8 6 10 7 11 8 14 9 15 10 13 11 16 12
REMARK SMILES IDX 12 13 17 14 19 15 18 16 20 18 22 20 24 22 6 24 5 25 2 26
REMARK SMILES IDX 1 27 3 28 4 29 26 31
REMARK H PARENT 18 17 20 19 22 21 24 23 4 30 26 32
ROOT
ATOM      1  C   UNL     1       8.616   4.570  -6.784  1.00  0.00    +0.282 C 
ATOM      2  C   UNL     1       7.113   4.390  -7.076  1.00  0.00    +0.202 C 
ATOM      3  C   UNL     1       6.503   5.765  -7.288  1.00  0.00    +0.179 C 
ATOM      4  C   UNL     1       7.114   6.401  -8.540  1.00  0.00    +0.177 C 
ATOM      5  C   UNL     1       8.616   6.071  -8.712  1.00  0.00    +0.180 C 
ATOM      6  O   UNL     1       9.231   5.654  -7.478  1.00  0.00    -0.341 OA
ENDROOT
BRANCH   1   7
ATOM      7  O   UNL     1       9.261   3.315  -7.016  1.00  0.00    -0.341 OA
BRANCH   7   8
ATOM      8  C   UNL     1       9.499   2.583  -5.818  1.00  0.00    +0.184 C 
ATOM      9  C   UNL     1      10.796   2.018  -3.949  1.00  0.00    +0.195 C 
ATOM     10  C   UNL     1      10.548   3.190  -4.899  1.00  0.00    +0.179 C 
ATOM     11  O   UNL     1      10.618   0.818  -4.745  1.00  0.00    -0.370 OA
ATOM     12  O   UNL     1      11.714   3.571  -5.651  1.00  0.00    -0.342 OA
ATOM     13  C   UNL     1      10.206   1.255  -6.066  1.00  0.00    +0.184 C 
ATOM     14  C   UNL     1      12.383   2.526  -6.350  1.00  0.00    +0.279 C 
ATOM     15  C   UNL     1      11.435   1.469  -6.960  1.00  0.00    +0.202 C 
BRANCH  14  16
ATOM     16  O   UNL     1      13.313   1.907  -5.466  1.00  0.00    -0.366 OA
ATOM     17  H   UNL     1      12.810   1.186  -5.047  1.00  0.00    +0.213 HD
ENDBRANCH  14  16
BRANCH  15  18
ATOM     18  O   UNL     1      12.122   0.228  -7.167  1.00  0.00    -0.385 OA
ATOM     19  H   UNL     1      11.399  -0.429  -7.265  1.00  0.00    +0.211 HD
ENDBRANCH  15  18
ENDBRANCH   7   8
ENDBRANCH   1   7
BRANCH   2  20
ATOM     20  O   UNL     1       6.441   3.738  -5.985  1.00  0.00    -0.385 OA
ATOM     21  H   UNL     1       7.026   3.837  -5.208  1.00  0.00    +0.211 HD
ENDBRANCH   2  20
BRANCH   3  22
ATOM     22  O   UNL     1       5.079   5.660  -7.457  1.00  0.00    -0.387 OA
ATOM     23  H   UNL     1       4.939   5.694  -8.427  1.00  0.00    +0.211 HD
ENDBRANCH   3  22
BRANCH   5  24
ATOM     24  C   UNL     1       8.944   5.110  -9.869  1.00  0.00    +0.220 C 
BRANCH  24  25
ATOM     25  O   UNL     1      10.360   5.047 -10.017  1.00  0.00    -0.245 OA
BRANCH  25  26
ATOM     26  S   UNL     1      11.019   3.610 -10.386  1.00  0.00    +0.397 S 
ATOM     27  O   UNL     1      12.304   3.475  -9.738  1.00  0.00    -0.169 OA
ATOM     28  O   UNL     1      10.843   3.380 -11.802  1.00  0.00    -0.169 OA
BRANCH  26  29
ATOM     29  O   UNL     1      10.003   2.584  -9.675  1.00  0.00    -0.264 OA
ATOM     30  H   UNL     1      10.132   2.678  -8.709  1.00  0.00    +0.236 HD
ENDBRANCH  26  29
ENDBRANCH  25  26
ENDBRANCH  24  25
ENDBRANCH   5  24
BRANCH   4  31
ATOM     31  O   UNL     1       6.355   6.003  -9.687  1.00  0.00    -0.387 OA
ATOM     32  H   UNL     1       6.982   5.477 -10.232  1.00  0.00    +0.211 HD
ENDBRANCH   4  31
TORSDOF 11
ENDMDL
MODEL 7
REMARK VINA RESULT:    -6.922      5.763      9.408
REMARK INTER + INTRA:         -11.050
REMARK INTER:                  -9.842
REMARK INTRA:                  -1.209
REMARK UNBOUND:                -0.891
REMARK SMILES O=S(=O)(O)OC[C@@H]1O[C@H](O[C@H]2[C@@H]3OC[C@H]2O[C@@H](O)[C@H]3O)[C@@H](O)[C@H](O)[C@@H]1O
REMARK SMILES IDX 9 1 21 2 23 3 25 4 7 5 8 6 10 7 11 8 14 9 15 10 13 11 16 12
REMARK SMILES IDX 12 13 17 14 19 15 18 16 20 18 22 20 24 22 6 24 5 25 2 26
REMARK SMILES IDX 1 27 3 28 4 29 26 31
REMARK H PARENT 18 17 20 19 22 21 24 23 4 30 26 32
ROOT
ATOM      1  C   UNL     1       9.197   4.701  -8.923  1.00  0.00    +0.282 C 
ATOM      2  C   UNL     1       8.963   3.416  -8.104  1.00  0.00    +0.202 C 
ATOM      3  C   UNL     1       8.875   3.799  -6.637  1.00  0.00    +0.179 C 
ATOM      4  C   UNL     1       7.643   4.681  -6.417  1.00  0.00    +0.177 C 
ATOM      5  C   UNL     1       7.378   5.650  -7.594  1.00  0.00    +0.180 C 
ATOM      6  O   UNL     1       8.550   5.862  -8.404  1.00  0.00    -0.341 OA
ENDROOT
BRANCH   1   7
ATOM      7  O   UNL     1       8.848   4.423 -10.282  1.00  0.00    -0.341 OA
BRANCH   7   8
ATOM      8  C   UNL     1       9.579   5.213 -11.215  1.00  0.00    +0.184 C 
ATOM      9  C   UNL     1      10.236   5.785 -13.391  1.00  0.00    +0.195 C 
ATOM     10  C   UNL     1       9.062   5.150 -12.644  1.00  0.00    +0.179 C 
ATOM     11  O   UNL     1      11.426   5.407 -12.652  1.00  0.00    -0.370 OA
ATOM     12  O   UNL     1       8.812   3.786 -13.028  1.00  0.00    -0.342 OA
ATOM     13  C   UNL     1      10.974   4.665 -11.490  1.00  0.00    +0.184 C 
ATOM     14  C   UNL     1       9.931   2.906 -12.991  1.00  0.00    +0.279 C 
ATOM     15  C   UNL     1      10.900   3.167 -11.816  1.00  0.00    +0.202 C 
BRANCH  14  16
ATOM     16  O   UNL     1      10.623   2.993 -14.233  1.00  0.00    -0.366 OA
ATOM     17  H   UNL     1      10.202   3.740 -14.696  1.00  0.00    +0.213 HD
ENDBRANCH  14  16
BRANCH  15  18
ATOM     18  O   UNL     1      12.206   2.655 -12.109  1.00  0.00    -0.385 OA
ATOM     19  H   UNL     1      12.591   2.467 -11.226  1.00  0.00    +0.211 HD
ENDBRANCH  15  18
ENDBRANCH   7   8
ENDBRANCH   1   7
BRANCH   2  20
ATOM     20  O   UNL     1      10.037   2.477  -8.284  1.00  0.00    -0.385 OA
ATOM     21  H   UNL     1       9.957   2.147  -9.200  1.00  0.00    +0.211 HD
ENDBRANCH   2  20
BRANCH   3  22
ATOM     22  O   UNL     1       8.766   2.622  -5.817  1.00  0.00    -0.387 OA
ATOM     23  H   UNL     1       7.820   2.581  -5.563  1.00  0.00    +0.211 HD
ENDBRANCH   3  22
BRANCH   5  24
ATOM     24  C   UNL     1       6.143   5.314  -8.450  1.00  0.00    +0.220 C 
BRANCH  24  25
ATOM     25  O   UNL     1       5.045   6.096  -7.987  1.00  0.00    -0.245 OA
BRANCH  25  26
ATOM     26  S   UNL     1       3.590   5.381  -7.900  1.00  0.00    +0.397 S 
ATOM     27  O   UNL     1       3.393   4.522  -9.046  1.00  0.00    -0.169 OA
ATOM     28  O   UNL     1       2.618   6.376  -7.507  1.00  0.00    -0.169 OA
BRANCH  26  29
ATOM     29  O   UNL     1       3.758   4.438  -6.606  1.00  0.00    -0.264 OA
ATOM     30  H   UNL     1       4.711   4.424  -6.386  1.00  0.00    +0.236 HD
ENDBRANCH  26  29
ENDBRANCH  25  26
ENDBRANCH  24  25
ENDBRANCH   5  24
BRANCH   4  31
ATOM     31  O   UNL     1       6.508   3.847  -6.160  1.00  0.00    -0.387 OA
ATOM     32  H   UNL     1       6.093   4.229  -5.354  1.00  0.00    +0.211 HD
ENDBRANCH   4  31
TORSDOF 11
ENDMDL
MODEL 8
REMARK VINA RESULT:    -6.747      1.980      5.781
REMARK INTER + INTRA:         -10.794
REMARK INTER:                  -9.652
REMARK INTRA:                  -1.142
REMARK UNBOUND:                -0.891
REMARK SMILES O=S(=O)(O)OC[C@@H]1O[C@H](O[C@H]2[C@@H]3OC[C@H]2O[C@@H](O)[C@H]3O)[C@@H](O)[C@H](O)[C@@H]1O
REMARK SMILES IDX 9 1 21 2 23 3 25 4 7 5 8 6 10 7 11 8 14 9 15 10 13 11 16 12
REMARK SMILES IDX 12 13 17 14 19 15 18 16 20 18 22 20 24 22 6 24 5 25 2 26
REMARK SMILES IDX 1 27 3 28 4 29 26 31
REMARK H PARENT 18 17 20 19 22 21 24 23 4 30 26 32
ROOT
ATOM      1  C   UNL     1      12.687   2.692  -3.002  1.00  0.00    +0.282 C 
ATOM      2  C   UNL     1      13.678   3.730  -2.442  1.00  0.00    +0.202 C 
ATOM      3  C   UNL     1      14.547   3.043  -1.403  1.00  0.00    +0.179 C 
ATOM      4  C   UNL     1      15.392   1.963  -2.085  1.00  0.00    +0.177 C 
ATOM      5  C   UNL     1      14.634   1.232  -3.219  1.00  0.00    +0.180 C 
ATOM      6  O   UNL     1      13.205   1.367  -3.099  1.00  0.00    -0.341 OA
ENDROOT
BRANCH   1   7
ATOM      7  O   UNL     1      12.187   3.192  -4.246  1.00  0.00    -0.341 OA
BRANCH   7   8
ATOM      8  C   UNL     1      11.719   2.162  -5.111  1.00  0.00    +0.184 C 
ATOM      9  C   UNL     1      10.563   1.399  -7.002  1.00  0.00    +0.195 C 
ATOM     10  C   UNL     1      11.317   2.632  -6.500  1.00  0.00    +0.179 C 
ATOM     11  O   UNL     1       9.934   0.816  -5.831  1.00  0.00    -0.370 OA
ATOM     12  O   UNL     1      10.492   3.808  -6.413  1.00  0.00    -0.342 OA
ATOM     13  C   UNL     1      10.361   1.609  -4.693  1.00  0.00    +0.184 C 
ATOM     14  C   UNL     1       9.273   3.671  -5.692  1.00  0.00    +0.279 C 
ATOM     15  C   UNL     1       9.374   2.759  -4.449  1.00  0.00    +0.202 C 
BRANCH  14  16
ATOM     16  O   UNL     1       8.267   3.189  -6.580  1.00  0.00    -0.366 OA
ATOM     17  H   UNL     1       8.693   2.452  -7.054  1.00  0.00    +0.213 HD
ENDBRANCH  14  16
BRANCH  15  18
ATOM     18  O   UNL     1       8.086   2.241  -4.090  1.00  0.00    -0.385 OA
ATOM     19  H   UNL     1       7.721   2.917  -3.481  1.00  0.00    +0.211 HD
ENDBRANCH  15  18
ENDBRANCH   7   8
ENDBRANCH   1   7
BRANCH   2  20
ATOM     20  O   UNL     1      12.991   4.834  -1.827  1.00  0.00    -0.385 OA
ATOM     21  H   UNL     1      12.683   4.510  -0.958  1.00  0.00    +0.211 HD
ENDBRANCH   2  20
BRANCH   3  22
ATOM     22  O   UNL     1      15.419   3.995  -0.769  1.00  0.00    -0.387 OA
ATOM     23  H   UNL     1      15.414   4.774  -1.364  1.00  0.00    +0.211 HD
ENDBRANCH   3  22
BRANCH   5  24
ATOM     24  C   UNL     1      15.123   1.554  -4.643  1.00  0.00    +0.220 C 
BRANCH  24  25
ATOM     25  O   UNL     1      16.157   0.634  -4.985  1.00  0.00    -0.245 OA
BRANCH  25  26
ATOM     26  S   UNL     1      17.600   1.242  -5.413  1.00  0.00    +0.397 S 
ATOM     27  O   UNL     1      17.938   0.816  -6.752  1.00  0.00    -0.169 OA
ATOM     28  O   UNL     1      18.509   1.079  -4.301  1.00  0.00    -0.169 OA
BRANCH  26  29
ATOM     29  O   UNL     1      17.295   2.821  -5.465  1.00  0.00    -0.264 OA
ATOM     30  H   UNL     1      18.159   3.277  -5.524  1.00  0.00    +0.236 HD
ENDBRANCH  26  29
ENDBRANCH  25  26
ENDBRANCH  24  25
ENDBRANCH   5  24
BRANCH   4  31
ATOM     31  O   UNL     1      16.608   2.550  -2.561  1.00  0.00    -0.387 OA
ATOM     32  H   UNL     1      17.314   1.923  -2.286  1.00  0.00    +0.211 HD
ENDBRANCH   4  31
TORSDOF 11
ENDMDL
MODEL 9
REMARK VINA RESULT:    -6.665     12.336     15.650
REMARK INTER + INTRA:         -10.674
REMARK INTER:                  -9.597
REMARK INTRA:                  -1.077
REMARK UNBOUND:                -0.891
REMARK SMILES O=S(=O)(O)OC[C@@H]1O[C@H](O[C@H]2[C@@H]3OC[C@H]2O[C@@H](O)[C@H]3O)[C@@H](O)[C@H](O)[C@@H]1O
REMARK SMILES IDX 9 1 21 2 23 3 25 4 7 5 8 6 10 7 11 8 14 9 15 10 13 11 16 12
REMARK SMILES IDX 12 13 17 14 19 15 18 16 20 18 22 20 24 22 6 24 5 25 2 26
REMARK SMILES IDX 1 27 3 28 4 29 26 31
REMARK H PARENT 18 17 20 19 22 21 24 23 4 30 26 32
ROOT
ATOM      1  C   UNL     1      -1.729   7.289 -11.351  1.00  0.00    +0.282 C 
ATOM      2  C   UNL     1      -2.338   6.304 -12.368  1.00  0.00    +0.202 C 
ATOM      3  C   UNL     1      -3.371   7.053 -13.192  1.00  0.00    +0.179 C 
ATOM      4  C   UNL     1      -2.672   8.143 -14.010  1.00  0.00    +0.177 C 
ATOM      5  C   UNL     1      -1.503   8.813 -13.247  1.00  0.00    +0.180 C 
ATOM      6  O   UNL     1      -1.602   8.629 -11.822  1.00  0.00    -0.341 OA
ENDROOT
BRANCH   1   7
ATOM      7  O   UNL     1      -0.492   6.735 -10.892  1.00  0.00    -0.341 OA
BRANCH   7   8
ATOM      8  C   UNL     1       0.099   7.491  -9.841  1.00  0.00    +0.184 C 
ATOM      9  C   UNL     1       1.882   8.040  -8.421  1.00  0.00    +0.195 C 
ATOM     10  C   UNL     1       1.619   7.461  -9.813  1.00  0.00    +0.179 C 
ATOM     11  O   UNL     1       0.775   7.599  -7.594  1.00  0.00    -0.370 OA
ATOM     12  O   UNL     1       2.098   6.113  -9.969  1.00  0.00    -0.342 OA
ATOM     13  C   UNL     1      -0.131   6.874  -8.466  1.00  0.00    +0.184 C 
ATOM     14  C   UNL     1       1.683   5.178  -8.980  1.00  0.00    +0.279 C 
ATOM     15  C   UNL     1       0.233   5.384  -8.486  1.00  0.00    +0.202 C 
BRANCH  14  16
ATOM     16  O   UNL     1       2.593   5.236  -7.884  1.00  0.00    -0.366 OA
ATOM     17  H   UNL     1       2.990   4.348  -7.849  1.00  0.00    +0.213 HD
ENDBRANCH  14  16
BRANCH  15  18
ATOM     18  O   UNL     1       0.051   4.809  -7.186  1.00  0.00    -0.385 OA
ATOM     19  H   UNL     1      -0.765   4.271  -7.277  1.00  0.00    +0.211 HD
ENDBRANCH  15  18
ENDBRANCH   7   8
ENDBRANCH   1   7
BRANCH   2  20
ATOM     20  O   UNL     1      -2.973   5.195 -11.710  1.00  0.00    -0.385 OA
ATOM     21  H   UNL     1      -3.879   5.147 -12.074  1.00  0.00    +0.211 HD
ENDBRANCH   2  20
BRANCH   3  22
ATOM     22  O   UNL     1      -4.048   6.153 -14.085  1.00  0.00    -0.387 OA
ATOM     23  H   UNL     1      -4.887   5.932 -13.629  1.00  0.00    +0.211 HD
ENDBRANCH   3  22
BRANCH   5  24
ATOM     24  C   UNL     1      -0.098   8.468 -13.774  1.00  0.00    +0.220 C 
BRANCH  24  25
ATOM     25  O   UNL     1       0.867   9.065 -12.911  1.00  0.00    -0.245 OA
BRANCH  25  26
ATOM     26  S   UNL     1       2.422   9.031 -13.377  1.00  0.00    +0.397 S 
ATOM     27  O   UNL     1       2.552   9.588 -14.704  1.00  0.00    -0.169 OA
ATOM     28  O   UNL     1       2.973   7.743 -13.025  1.00  0.00    -0.169 OA
BRANCH  26  29
ATOM     29  O   UNL     1       3.101  10.064 -12.345  1.00  0.00    -0.264 OA
ATOM     30  H   UNL     1       3.175  10.923 -12.808  1.00  0.00    +0.236 HD
ENDBRANCH  26  29
ENDBRANCH  25  26
ENDBRANCH  24  25
ENDBRANCH   5  24
BRANCH   4  31
ATOM     31  O   UNL     1      -2.235   7.588 -15.255  1.00  0.00    -0.387 OA
ATOM     32  H   UNL     1      -2.997   7.708 -15.865  1.00  0.00    +0.211 HD
ENDBRANCH   4  31
TORSDOF 11
ENDMDL
